# vtk DataFile Version 3.0
vtk output
ASCII
DATASET POLYDATA
POINTS 6 float
0 0 0 1 0 0 2 0 0 
0 1 0 1 1 0 2 1 0 

POLYGONS 4 16
3 0 1 4 
3 0 4 3 
3 1 2 5 
3 1 5 4 

CELL_DATA 4
FIELD FieldData 4
cell_1 1 4 double
1 2 3 4 
cells_v 3 4 double
0 0 1 0 0 1 0.5 0.5 0.5 
0 0 1 
cells_4d 4 4 double
0 0 0 0 1 1 1 1 2 
2 2 2 3 4 5 6 
cells_t 9 4 double
-0.5 -1.5 0 1.5 0.5 0 0 0 3 
0 -0.7071 0.7071 0.7071 -0.5 -0.5 0.7071 0.5 0.5 
-0.5 -1.0607 1.0607 1.0607 -4.75 -5.25 1.0607 5.25 4.75 
1 0 0 0 3 0 0 0 2 

POINT_DATA 6
FIELD FieldData 3
nodes_1 1 6 double
0 1 0 0 1 0 
nodes_2 1 6 double
1 2 3 4 5 6 
nodes_t 9 6 double
-0.5 -1.5 0 1.5 0.5 0 0 0 3 
0 -0.7071 0.7071 0.7071 -0.5 -0.5 0.7071 0.5 0.5 
-0.5 -1.0607 1.0607 1.0607 -4.75 -5.25 1.0607 5.25 4.75 
1 0 0 0 3 0 0 0 2 
2 0 0 0 1 0 0 0 3 
-0.5 -1.0607 1.0607 1.0607 -1.25 -1.75 1.0607 1.75 1.25 

