# vtk DataFile Version 3.0
vtk output
ASCII
DATASET POLYDATA
POINTS 526 double
0.0272255 0.99919 2.84973 0.0475819 0.998867 2.83618 0.0203462 0.9993 2.8537 
0.0641816 0.997548 2.82514 -0.0674988 0.997415 2.90116 -0.0525495 0.998127 2.89375 
-0.143114 0.989681 2.93415 -0.142315 0.989821 2.93381 -0.168027 0.985288 2.94277 
-0.161266 0.98648 2.94043 -0.116116 0.992743 2.92284 -0.307112 0.951206 2.98078 
-0.302586 0.952613 2.97983 -0.229938 0.972706 2.96233 -0.204807 0.978802 2.95538 
-0.369425 0.928819 2.991 -0.362516 0.931458 2.99001 -0.327068 0.945001 2.98491 
-0.326352 0.945224 2.98481 -0.409486 0.911786 2.99545 -0.409253 0.911892 2.99544 
-0.495164 0.868616 2.99955 -0.477618 0.878017 2.99927 -0.574626 0.817825 2.99708 
-0.55392 0.83257 2.99806 -0.654861 0.75575 2.98761 -0.642315 0.765942 2.98982 
-0.635068 0.771829 2.99063 -0.673653 0.738392 2.9843 -0.743882 0.668219 2.96932 
-0.727515 0.685384 2.97329 -0.823677 0.56706 2.94606 -0.808257 0.588002 2.95085 
0.495263 0.868179 2.09194 0.496018 0.867743 2.08405 0.496018 0.867743 1.91595 
0.492979 0.869497 1.88414 0.5 0.865444 2 0.498645 0.866227 1.9573 
0.498645 0.866227 2.0427 0.467949 0.883596 1.74885 0.455829 0.889602 1.70758 
0.472271 0.881453 1.76799 0.393731 0.918715 1.55237 0.373849 0.927042 1.5138 
0.356886 0.934148 1.48547 0.443108 0.895907 1.66884 0.434111 0.900366 1.64412 
0.356886 0.934148 2.51453 0.363623 0.931326 2.50328 0.383019 0.923202 2.46841 
0.386602 0.921701 2.46146 0.455829 0.889602 2.29242 0.467949 0.883596 2.25115 
0.472271 0.881453 2.23201 0.441959 0.896476 2.33432 0.443108 0.895907 2.33116 
0.145549 0.988848 2.76315 0.16399 0.986196 2.74717 0.207266 0.977773 2.70629 
0.209961 0.97721 2.70364 0.268055 0.962883 2.64023 0.293157 0.955943 2.60831 
0.30527 0.952012 2.59291 0.326153 0.944785 2.56258 -0.620665 -0.783531 2.99224 
-0.625392 -0.779691 2.99171 -0.558075 -0.829611 2.99786 -0.574626 -0.817825 2.99708 
-0.886345 0.462702 2.92235 -0.87604 0.481224 2.92629 -0.827068 0.561783 2.945 
-0.900203 0.434346 2.91603 -0.888835 0.458227 2.92122 -0.97543 0.220311 2.87919 
-0.969305 0.243917 2.88247 -0.995472 0.095056 2.86845 -0.99205 0.121867 2.87028 
-0.997188 0.068047 2.86753 -0.98053 0.193847 2.87646 -0.995472 -0.095056 2.86845 
-0.997188 -0.068047 2.86753 -0.99205 -0.121867 2.87028 -0.999497 0.00464872 2.8663 
-0.999497 0.0317279 2.8663 -0.87604 -0.481224 2.92629 -0.886345 -0.462702 2.92235 
-0.97543 -0.220311 2.87919 -0.98053 -0.193847 2.87646 -0.888835 -0.458227 2.92122 
-0.900203 -0.434346 2.91603 -0.823677 -0.56706 2.94606 -0.827068 -0.561783 2.945 
-0.808257 -0.588002 2.95085 -0.704807 -0.7092 2.9788 -0.719207 -0.694097 2.97531 
-0.204807 -0.978802 2.95538 -0.221738 -0.974695 2.96006 -0.20308 -0.979107 2.9549 
-0.184878 -0.982316 2.9486 -0.266474 -0.963842 2.97228 -0.283389 -0.958583 2.97582 
-0.0277289 -0.999309 2.88145 -0.0426287 -0.998599 2.88884 0.0113035 -0.999443 2.85892 
0.0107331 -0.999452 2.85925 0.493922 -0.868953 2.10599 0.491955 -0.870089 2.12659 
0.48869 -0.871974 2.14699 0.491955 -0.870089 1.87341 0.493922 -0.868953 1.89401 
0.48869 -0.871974 1.85301 0.499342 -0.865824 1.97927 0.5 -0.865444 2 
0.499342 -0.865824 2.02073 0.472271 -0.881453 1.76799 0.472474 -0.881336 1.76889 
0.420263 -0.907229 1.60982 0.428368 -0.903212 1.62834 0.435314 -0.89977 1.64742 
0.374624 -0.926718 1.51531 0.383019 -0.923202 1.53159 0.428368 -0.903212 2.37166 
0.420263 -0.907229 2.39018 0.402927 -0.914863 2.4298 0.393731 -0.918715 2.44763 
0.435314 -0.89977 2.35258 0.472474 -0.881336 2.23111 0.472271 -0.881453 2.23201 
0.316438 -0.948147 2.57669 0.30527 -0.952012 2.59291 0.278125 -0.960099 2.62743 
0.268055 -0.962883 2.64023 0.192249 -0.980916 2.72107 0.178509 -0.983791 2.73459 
0.0475819 0.998867 1.16382 0.0430861 0.998939 1.16083 0.0956906 0.995043 1.19732 
0.0800569 0.996286 1.18542 0.173648 0.984808 1.2612 0.145046 0.98892 1.23641 
0.223734 0.974328 1.30992 0.192249 0.980916 1.27893 0.266044 0.963439 1.35721 
0.252171 0.967274 1.34171 0.29692 0.954902 1.39647 0.278125 0.960099 1.37257 
0.330051 0.943435 1.44309 0.30527 0.952012 1.40709 0.0107331 0.999452 1.14075 
-0.00147977 0.999646 1.1337 -0.0448028 0.998496 1.11008 -0.07925 0.996855 1.09301 
-0.0929585 0.995326 1.08686 -0.125458 0.991701 1.07325 -0.161266 0.98648 1.05957 
-0.191695 0.981114 1.04904 -0.204807 0.978802 1.04462 -0.245513 0.968927 1.03337 
-0.339082 0.940411 1.01336 -0.369425 0.928819 1.009 -0.283389 0.958583 1.02418 
-0.326352 0.945224 1.01519 -0.327068 0.945001 1.01509 -0.409253 0.911892 1.00456 
-0.432491 0.90128 1.00272 -0.472969 0.880508 1.00081 -0.5 0.866025 1.00038 
-0.515866 0.856181 1.00013 -0.543121 0.83927 1.00142 -0.55392 0.83257 1.00194 
-0.558075 0.829611 1.00214 -0.57925 0.814533 1.00315 -0.595221 0.80316 1.00493 
-0.615531 0.787702 1.00719 -0.620665 0.783531 1.00776 -0.664223 0.747102 1.01404 
-0.691976 0.721468 1.01894 -0.766474 0.641493 1.03616 -0.777572 0.628266 1.03961 
-0.71043 0.703302 1.02256 -0.743882 0.668219 1.03068 -0.793914 0.607482 1.04469 
-0.803967 0.593828 1.04782 -0.888835 0.458227 1.07878 -0.910171 0.413404 1.08853 
-0.886345 0.462702 1.07765 -0.864582 0.501818 1.06933 -0.850478 0.525356 1.06394 
-0.850683 0.525037 1.06402 -0.969305 0.243917 1.11753 -0.97543 0.220311 1.12081 
-0.989252 0.143798 1.12822 -0.995472 0.095056 1.13155 -0.998584 0.0460808 1.13322 
-0.984735 0.172031 1.1258 -0.998584 -0.0460808 1.13322 -0.995472 -0.095056 1.13155 
-0.989252 -0.143798 1.12822 -0.999497 0.0317279 1.1337 -0.999497 -0.0173399 1.1337 
-0.595221 -0.80316 1.00493 -0.57925 -0.814533 1.00315 -0.984735 -0.172031 1.1258 
-0.97543 -0.220311 1.12081 -0.888835 -0.458227 1.07878 -0.886345 -0.462702 1.07765 
-0.864582 -0.501818 1.06933 -0.910171 -0.413404 1.08853 -0.786053 -0.618159 1.04225 
-0.766474 -0.641493 1.03616 -0.727183 -0.685732 1.02663 -0.704807 -0.7092 1.0212 
-0.701475 -0.712694 1.02061 -0.682685 -0.730049 1.0173 0.30527 -0.952012 1.40709 
0.316438 -0.948147 1.42331 0.29692 -0.954902 1.39647 0.253072 -0.967025 1.34271 
0.266044 -0.963439 1.35721 0.293157 -0.955943 1.39169 0.209961 -0.97721 1.29636 
0.219538 -0.975206 1.30579 0.173648 -0.984808 1.2612 0.178509 -0.983791 1.26541 
0.16399 -0.986196 1.25283 0.0800569 -0.996286 1.18542 0.0952554 -0.995077 1.19699 
0.0641816 -0.997548 1.17486 -0.221738 -0.974695 1.03994 -0.204807 -0.978802 1.04462 
-0.20308 -0.979107 1.0451 -0.184878 -0.982316 1.0514 -0.0277289 -0.999309 1.11855 
-0.015866 -0.999874 1.1254 -0.0112404 -0.999801 1.12807 -0.084585 -0.99626 1.09037 
-0.07925 -0.996855 1.09301 -0.10221 -0.994294 1.08299 -0.314736 -0.948836 1.01762 
-0.307112 -0.951206 1.01922 -0.432491 -0.90128 1.00272 -0.432194 -0.901416 1.00274 
-0.345976 -0.937777 1.01237 -0.339082 -0.940411 1.01336 -0.5 -0.866025 1.00038 
-0.495164 -0.868616 1.00045 -0.53687 -0.843149 1.00113 -0.515866 -0.856181 1.00013 
-0.510786 -0.859333 1.00021 -0.0112404 0.999801 2.87193 -0.0277289 0.999309 2.88145 
-0.20308 0.979107 2.9549 -0.10221 0.994294 2.91701 -0.266474 0.963842 2.97228 
-0.264241 0.964384 2.97181 -0.245513 0.968927 2.96663 -0.444067 0.895994 2.9982 
-0.452418 0.891519 2.99887 -0.57925 0.814533 2.99685 -0.60561 0.795762 2.99391 
-0.600701 0.799257 2.99446 -0.53687 0.843149 2.99887 -0.682685 0.730049 2.9827 
-0.704807 0.7092 2.9788 -0.789334 0.613704 2.95673 -0.654861 -0.75575 2.98761 
-0.664223 -0.747102 2.98596 -0.642315 -0.765942 2.98982 -0.57925 -0.814533 2.99685 
-0.857983 0.513677 2.93319 -0.850478 0.525356 2.93606 -0.916108 0.400931 2.90876 
-0.91973 0.391885 2.90711 -0.987439 -0.158001 2.87276 -0.999497 -0.0317279 2.8663 
-0.987439 0.158001 2.87276 -0.862696 -0.505207 2.93139 -0.974536 -0.223754 2.87967 
-0.91044 -0.412839 2.91135 -0.727183 -0.685732 2.97337 -0.803967 -0.593828 2.95218 
0.491955 0.870089 2.12659 0.485189 0.873995 2.16887 0.491955 0.870089 1.87341 
0.485189 0.873995 1.83113 0.477395 0.878495 1.79068 0.351449 0.93603 1.47639 
0.428368 0.903212 1.62834 0.415415 0.909632 1.59874 0.411009 0.911477 1.58867 
0.341254 0.939558 2.54064 0.415415 0.909632 2.40126 0.428368 0.903212 2.37166 
0.402927 0.914863 2.4298 0.411009 0.911477 2.41133 0.477395 0.878495 2.20932 
0.0952554 0.995077 2.80301 0.110838 0.993838 2.79115 0.130553 0.991004 2.77615 
0.178509 0.983791 2.73459 0.236668 0.97156 2.67562 0.266044 0.963439 2.64279 
0.330051 0.943435 2.55691 -0.264241 -0.964384 2.97181 -0.0448028 -0.998496 2.88992 
0.0430861 -0.998939 2.83917 0.0272255 -0.99919 2.84973 -0.142315 -0.989821 2.93381 
-0.143114 -0.989681 2.93415 -0.125458 -0.991701 2.92675 -0.432194 -0.901416 2.99726 
-0.444067 -0.895994 2.9982 -0.452418 -0.891519 2.99887 -0.472969 -0.880508 2.99919 
-0.327068 -0.945001 2.98491 -0.345976 -0.937777 2.98763 -0.326352 -0.945224 2.98481 
0.462179 -0.886455 1.7292 0.467949 -0.883596 1.74885 0.373849 -0.927042 1.5138 
0.363623 -0.931326 1.49672 0.351449 -0.93603 2.52361 0.341254 -0.939558 2.54064 
0.467949 -0.883596 2.25115 0.462179 -0.886455 2.2708 0.266044 -0.963439 2.64279 
0.253072 -0.967025 2.65729 0.130553 -0.991004 2.77615 0.115335 -0.993192 2.78773 
0.145046 -0.98892 2.76359 0.110838 0.993838 1.20885 0.115335 0.993192 1.21227 
0.236668 0.97156 1.32438 0.178509 0.983791 1.26541 -0.015866 0.999874 1.1254 
-0.0277289 0.999309 1.11855 -0.084585 0.99626 1.09037 -0.20308 0.979107 1.0451 
-0.444067 0.895994 1.0018 -0.452418 0.891519 1.00113 -0.60561 0.795762 1.00609 
-0.701475 0.712694 1.02061 -0.786053 0.618159 1.04225 -0.704807 0.7092 1.0212 
-0.916108 0.400931 1.09124 -0.857983 0.513677 1.06681 -0.91973 0.391885 1.09289 
-0.987439 -0.158001 1.12724 -0.999497 -0.0317279 1.1337 -0.987439 0.158001 1.12724 
-0.600701 -0.799257 1.00554 -0.974536 -0.223754 1.12033 -0.862696 -0.505207 1.06861 
-0.91044 -0.412839 1.08865 -0.789334 -0.613704 1.04327 0.223734 -0.974328 1.30992 
-0.0674988 -0.997415 1.09884 -0.444067 -0.895994 1.0018 -0.452418 -0.891519 1.00113 
-0.327068 -0.945001 1.01509 -0.326352 -0.945224 1.01519 0.497987 0.866606 1.93658 
0.497987 0.866606 2.06342 0.450071 0.892456 1.68797 0.397165 0.917276 1.55903 
0.450071 0.892456 2.31203 0.373849 0.927042 2.4862 0.0751893 0.996673 2.81781 
0.173648 0.984808 2.7388 0.223734 0.974328 2.69008 0.235759 0.971812 2.67664 
0.29692 0.954902 2.60353 0.130553 0.991004 1.22385 0.12617 0.991634 1.22052 
0.235759 0.971812 1.32336 0.339416 0.940194 1.45669 0.189502 0.981491 1.27623 
0.0272255 0.99919 1.15027 -0.0300311 0.999199 1.11741 -0.142315 0.989821 1.06619 
-0.143114 0.989681 1.06585 -0.278897 0.959979 1.02512 -0.253757 0.966927 1.03109 
-0.386345 0.922354 1.00657 -0.389162 0.921068 1.00616 -0.455265 0.889994 1.00109 
-0.642315 0.765942 1.01018 -0.654861 0.75575 1.01239 -0.745264 0.666769 1.03101 
-0.823677 0.56706 1.05394 0.497987 -0.866606 1.93658 0.497987 -0.866606 2.06342 
0.481929 -0.875878 2.18925 0.450071 -0.892456 1.68797 0.452965 -0.891022 1.69782 
0.481929 -0.875878 1.81075 0.415415 -0.909632 1.59874 0.402927 -0.914863 1.57021 
0.445849 -0.894549 2.32363 0.415415 -0.909632 2.40126 0.38572 -0.92207 2.46317 
0.326153 -0.944785 2.56258 0.29692 -0.954902 2.60353 0.173648 -0.984808 2.7388 
0.145549 -0.988848 2.76315 0.0751893 -0.996673 2.81781 0.0475819 -0.998867 2.83618 
0.202078 -0.978859 2.71139 -0.963044 0.268046 1.11417 -0.921267 0.388046 1.09359 
-0.939693 0.34202 1.10201 -0.944067 0.328702 1.10401 -0.955098 0.295115 1.10992 
-0.827068 0.561783 1.055 -0.664315 -0.747017 1.01406 -0.644906 -0.763837 1.01064 
-0.642315 -0.765942 1.01018 -0.60561 -0.795762 1.00609 -0.55392 -0.83257 1.00194 
-0.944067 -0.328702 1.10401 -0.944065 -0.328709 1.10401 -0.959493 -0.281733 1.11227 
-0.971863 -0.234056 1.1189 -0.934506 -0.354976 1.09964 -0.916108 -0.400931 1.09124 
-0.753692 -0.656726 1.03306 -0.850683 -0.525037 1.06402 -0.827068 -0.561783 1.055 
-0.823677 -0.56706 1.05394 -0.793914 -0.607482 1.04469 -0.736254 -0.676219 1.02883 
0.339416 -0.940194 1.45669 0.252171 -0.967274 1.34171 0.12617 -0.991634 1.22052 
0.130553 -0.991004 1.22385 0.0956906 -0.995043 1.19732 -0.253757 -0.966927 1.03109 
-0.155582 -0.987482 1.06154 -0.266474 -0.963842 1.02772 0.0475819 -0.998867 1.16382 
-0.0653065 -0.997519 1.09992 0.0272255 -0.99919 1.15027 0.0329372 -0.9991 1.15407 
-0.128796 -0.991329 1.07185 -0.389162 -0.921068 1.00616 -0.386345 -0.922354 1.00657 
-0.455265 -0.889994 1.00109 -0.07925 0.996855 2.90699 -0.386345 0.922354 2.99343 
-0.389162 0.921068 2.99384 -0.5 0.866025 2.99962 -0.515866 0.856181 2.99987 
-0.521572 0.852641 2.9996 -0.761866 0.646984 2.96496 -0.745264 0.666769 2.96899 
-0.701475 -0.712694 2.97939 -0.682668 -0.730065 2.98271 -0.60561 -0.795762 2.99391 
-0.55392 -0.83257 2.99806 -0.837805 0.545076 2.9409 -0.968682 0.246319 2.88281 
-0.939693 0.34202 2.89799 -0.929799 0.366733 2.90251 -0.944067 0.328702 2.89599 
-0.948033 0.316625 2.89387 -0.951146 -0.307147 2.8922 -0.959493 -0.281733 2.88773 
-0.966237 -0.25574 2.88412 -0.916108 -0.400931 2.90876 -0.925994 -0.376238 2.90425 
-0.769435 -0.637963 2.96292 -0.786053 -0.618159 2.95775 -0.837805 -0.545076 2.9409 
-0.229938 -0.972706 2.96233 -0.179143 -0.983328 2.94662 -0.290985 -0.95622 2.97741 
-0.015866 -0.999874 2.8746 -0.07925 -0.996855 2.90699 -0.084585 -0.99626 2.90963 
-0.105505 -0.993927 2.91839 -0.389162 -0.921068 2.99384 -0.409486 -0.911786 2.99545 
-0.386345 -0.922354 2.99343 -0.477618 -0.878017 2.99927 -0.5 -0.866025 2.99962 
-0.362516 -0.931458 2.99001 -0.532342 -0.845958 2.99909 0.481929 0.875878 2.18925 
0.481929 0.875878 1.81075 0.341254 0.939558 1.45936 0.402927 0.914863 1.57021 
0.0800569 0.996286 2.81458 -0.266474 0.963842 1.02772 -0.264241 0.964384 1.02819 
-0.959493 0.281733 1.11227 -0.654861 -0.75575 1.01239 -0.939693 -0.34202 1.10201 
-0.857983 -0.513677 1.06681 -0.745264 -0.666769 1.03101 0.356886 -0.934148 1.48547 
0.341254 -0.939558 1.45936 0.450071 -0.892456 2.31203 0.373849 -0.927042 2.4862 
0.356886 -0.934148 2.51453 0.223734 -0.974328 2.69008 0.235759 -0.971812 2.67664 
0.110838 -0.993838 2.79115 0.0800569 -0.996286 2.81458 0.235759 -0.971812 1.32336 
0.110838 -0.993838 1.20885 -0.264241 -0.964384 1.02819 -0.143114 -0.989681 1.06585 
-0.142315 -0.989821 1.06619 -0.015866 0.999874 2.8746 -0.084585 0.99626 2.90963 
-0.701475 0.712694 2.97939 -0.786053 0.618159 2.95775 -0.766474 0.641493 2.96384 
-0.959493 0.281733 2.88773 -0.939693 -0.34202 2.89799 -0.944067 -0.328702 2.89599 
-0.857983 -0.513677 2.93319 -0.745264 -0.666769 2.96899 -0.766474 -0.641493 2.96384 
-0.515866 -0.856181 2.99987 
LINES 526 1578
2 0 1 
2 2 0 
2 1 3 
2 4 5 
2 6 7 
2 8 9 
2 7 10 
2 11 12 
2 13 14 
2 15 16 
2 17 18 
2 19 20 
2 21 22 
2 23 24 
2 25 26 
2 26 27 
2 28 25 
2 29 30 
2 31 32 
2 33 34 
2 35 36 
2 37 38 
2 39 37 
2 40 41 
2 42 40 
2 43 44 
2 44 45 
2 46 47 
2 48 49 
2 50 51 
2 52 53 
2 53 54 
2 55 56 
2 57 58 
2 59 60 
2 61 62 
2 63 64 
2 65 66 
2 67 68 
2 69 70 
2 71 31 
2 72 73 
2 73 69 
2 74 75 
2 76 77 
2 78 76 
2 79 74 
2 80 81 
2 82 80 
2 83 84 
2 85 86 
2 87 88 
2 86 89 
2 89 90 
2 91 92 
2 93 91 
2 94 95 
2 96 97 
2 98 96 
2 99 98 
2 100 101 
2 102 103 
2 104 105 
2 106 107 
2 107 108 
2 109 110 
2 111 109 
2 112 113 
2 113 114 
2 115 116 
2 117 118 
2 118 119 
2 120 121 
2 122 123 
2 124 125 
2 126 122 
2 127 128 
2 129 130 
2 131 132 
2 133 134 
2 135 136 
2 137 138 
2 138 135 
2 139 140 
2 141 142 
2 143 144 
2 145 146 
2 147 148 
2 148 145 
2 149 150 
2 151 152 
2 153 154 
2 155 156 
2 157 158 
2 159 160 
2 161 162 
2 162 163 
2 164 165 
2 166 167 
2 168 169 
2 167 168 
2 170 171 
2 172 173 
2 174 175 
2 176 177 
2 178 179 
2 180 181 
2 182 183 
2 184 185 
2 186 184 
2 187 186 
2 188 189 
2 190 191 
2 192 193 
2 193 194 
2 191 195 
2 196 197 
2 197 198 
2 199 200 
2 201 202 
2 203 204 
2 205 206 
2 206 207 
2 208 205 
2 209 210 
2 211 212 
2 212 213 
2 213 214 
2 215 216 
2 217 215 
2 218 219 
2 220 217 
2 221 222 
2 223 224 
2 225 223 
2 226 227 
2 228 226 
2 229 230 
2 231 232 
2 230 231 
2 233 234 
2 234 235 
2 236 237 
2 238 236 
2 239 240 
2 241 242 
2 243 244 
2 245 246 
2 247 248 
2 248 249 
2 250 2 
2 5 251 
2 14 252 
2 252 8 
2 10 253 
2 12 254 
2 254 255 
2 256 13 
2 16 17 
2 257 19 
2 22 258 
2 258 257 
2 259 23 
2 260 261 
2 24 262 
2 27 260 
2 263 28 
2 30 264 
2 32 265 
2 266 267 
2 268 266 
2 66 268 
2 68 269 
2 70 270 
2 270 271 
2 272 72 
2 273 272 
2 88 274 
2 81 275 
2 274 82 
2 275 83 
2 77 276 
2 84 78 
2 276 79 
2 277 85 
2 278 87 
2 90 279 
2 95 280 
2 281 93 
2 282 33 
2 283 282 
2 36 284 
2 284 285 
2 286 42 
2 45 287 
2 288 289 
2 47 288 
2 289 290 
2 291 48 
2 292 293 
2 51 294 
2 295 292 
2 293 55 
2 54 296 
2 297 298 
2 298 299 
2 299 57 
2 300 59 
2 301 302 
2 302 61 
2 64 303 
2 304 100 
2 103 305 
2 306 307 
2 307 104 
2 308 309 
2 310 308 
2 311 312 
2 313 314 
2 312 313 
2 315 316 
2 317 315 
2 318 319 
2 319 115 
2 320 120 
2 321 320 
2 322 323 
2 324 325 
2 128 324 
2 326 327 
2 132 326 
2 328 329 
2 330 328 
2 331 137 
2 332 331 
2 144 333 
2 334 139 
2 150 335 
2 335 336 
2 152 337 
2 337 153 
2 156 338 
2 338 157 
2 163 159 
2 165 339 
2 339 340 
2 173 341 
2 169 170 
2 341 174 
2 177 342 
2 179 343 
2 344 180 
2 342 344 
2 343 182 
2 185 345 
2 346 187 
2 189 346 
2 345 347 
2 348 203 
2 349 196 
2 198 348 
2 200 349 
2 350 192 
2 194 199 
2 195 350 
2 351 201 
2 204 352 
2 207 353 
2 354 208 
2 355 209 
2 222 356 
2 237 357 
2 358 241 
2 359 358 
2 244 360 
2 361 239 
2 360 361 
2 249 245 
2 362 35 
2 38 362 
2 363 39 
2 34 363 
2 364 46 
2 41 364 
2 365 43 
2 366 52 
2 56 366 
2 49 367 
2 367 50 
2 3 368 
2 58 369 
2 60 370 
2 370 371 
2 62 372 
2 372 63 
2 373 374 
2 140 373 
2 375 141 
2 146 143 
2 376 147 
2 142 377 
2 136 378 
2 378 149 
2 379 151 
2 380 381 
2 381 155 
2 154 380 
2 382 161 
2 158 383 
2 160 384 
2 384 385 
2 385 164 
2 386 166 
2 171 172 
2 387 388 
2 175 387 
2 388 176 
2 389 178 
2 181 389 
2 183 390 
2 110 391 
2 391 112 
2 114 392 
2 392 106 
2 393 127 
2 108 393 
2 119 394 
2 394 395 
2 396 111 
2 116 396 
2 397 117 
2 121 398 
2 398 397 
2 399 126 
2 123 400 
2 125 401 
2 400 124 
2 402 129 
2 130 403 
2 403 131 
2 134 404 
2 404 405 
2 406 407 
2 408 133 
2 409 190 
2 410 411 
2 411 412 
2 412 413 
2 414 188 
2 390 414 
2 214 415 
2 416 417 
2 417 418 
2 202 419 
2 420 421 
2 422 420 
2 423 422 
2 424 425 
2 210 426 
2 427 428 
2 428 429 
2 429 430 
2 431 211 
2 216 432 
2 433 218 
2 219 220 
2 224 221 
2 434 435 
2 435 225 
2 227 436 
2 437 229 
2 232 438 
2 240 439 
2 440 228 
2 441 233 
2 442 443 
2 235 442 
2 444 238 
2 445 446 
2 242 445 
2 246 447 
2 446 243 
2 419 247 
2 448 4 
2 9 6 
2 18 11 
2 449 15 
2 20 450 
2 450 449 
2 451 21 
2 452 451 
2 453 452 
2 454 455 
2 455 29 
2 456 94 
2 457 456 
2 458 65 
2 459 67 
2 460 71 
2 75 461 
2 462 463 
2 464 462 
2 465 464 
2 466 467 
2 467 468 
2 469 470 
2 471 472 
2 92 473 
2 97 474 
2 475 99 
2 101 476 
2 477 102 
2 105 477 
2 478 479 
2 479 480 
2 481 482 
2 483 481 
2 484 485 
2 486 483 
2 487 459 
2 296 488 
2 488 283 
2 285 489 
2 489 286 
2 287 490 
2 491 365 
2 290 491 
2 303 291 
2 294 295 
2 492 297 
2 368 492 
2 369 300 
2 371 301 
2 374 332 
2 333 375 
2 490 376 
2 377 334 
2 336 379 
2 493 382 
2 494 493 
2 383 494 
2 340 386 
2 495 409 
2 347 410 
2 413 495 
2 415 496 
2 496 416 
2 418 351 
2 497 424 
2 421 497 
2 352 423 
2 425 354 
2 353 498 
2 498 427 
2 499 431 
2 426 499 
2 430 355 
2 395 318 
2 500 321 
2 501 500 
2 325 502 
2 502 399 
2 503 504 
2 401 503 
2 504 322 
2 323 402 
2 505 408 
2 506 505 
2 327 506 
2 407 306 
2 329 507 
2 405 330 
2 507 508 
2 508 406 
2 432 501 
2 356 509 
2 509 433 
2 510 434 
2 436 510 
2 439 511 
2 511 437 
2 357 441 
2 443 440 
2 512 513 
2 438 512 
2 513 444 
2 447 359 
2 514 250 
2 251 514 
2 515 448 
2 253 515 
2 255 256 
2 261 259 
2 262 453 
2 516 263 
2 264 516 
2 517 518 
2 518 454 
2 265 517 
2 267 457 
2 269 458 
2 271 460 
2 461 519 
2 463 273 
2 519 465 
2 470 520 
2 520 521 
2 521 466 
2 468 278 
2 522 277 
2 279 469 
2 473 522 
2 280 523 
2 524 471 
2 523 524 
2 472 281 
2 474 304 
2 476 317 
2 305 478 
2 480 310 
2 309 475 
2 482 311 
2 314 484 
2 485 525 
2 316 486 
2 525 487 

CELL_DATA 526
FIELD FieldData 2
IDS_A 1 526 vtkIdType
262 262 326 297 355 355 357 298 300 
228 298 230 303 232 307 307 308 313 
319 365 365 365 365 324 324 387 387 
324 387 387 324 324 324 329 367 393 
395 294 349 316 321 315 316 380 375 
377 379 234 237 353 239 205 239 241 
243 245 198 222 284 284 290 221 266 
274 274 274 274 274 274 274 219 219 
276 219 276 219 274 279 282 281 262 
326 326 329 367 393 393 395 395 262 
297 357 355 300 228 298 298 230 303 
305 305 232 232 307 308 311 313 319 
315 316 316 321 380 375 377 379 234 
237 353 349 205 239 239 241 203 198 
198 292 279 279 282 282 281 281 344 
346 346 222 284 284 221 266 286 286 
290 224 288 227 351 351 263 296 354 
354 356 299 301 301 229 231 302 302 
233 233 304 306 309 312 318 293 295 
295 348 317 320 314 382 204 235 236 
352 374 376 378 238 248 240 199 244 
364 364 364 364 364 394 325 325 386 
394 325 386 386 325 364 327 328 328 
366 392 392 394 223 220 267 267 285 
287 225 226 226 289 291 218 218 277 
277 278 218 218 283 283 345 345 327 
328 392 366 263 296 356 356 354 354 
229 231 302 233 304 306 309 310 312 
312 318 314 317 320 382 204 235 236 
352 374 376 378 348 248 238 240 244 
280 220 225 226 289 291 291 350 365 
365 365 365 324 324 387 324 324 387 
387 326 329 367 367 393 395 329 329 
367 393 395 367 262 262 297 355 355 
357 298 300 228 230 230 303 232 307 
307 308 311 313 319 274 274 274 274 
274 274 219 219 274 274 219 276 276 
219 219 276 276 279 279 282 281 344 
346 281 380 383 385 385 321 321 292 
294 294 349 247 247 249 200 203 243 
243 245 198 279 282 282 281 344 344 
346 222 284 290 346 221 266 266 286 
224 224 227 288 351 297 355 298 228 
230 230 303 305 305 311 313 198 292 
294 349 321 380 383 385 385 247 249 
200 203 243 222 284 290 221 266 286 
286 224 224 227 288 351 364 364 364 
364 394 386 386 394 386 327 327 366 
392 328 392 394 366 296 299 301 301 
302 381 382 384 293 295 348 201 246 
248 240 238 242 199 202 244 218 277 
278 218 218 277 277 278 278 280 280 
283 267 345 345 347 347 278 280 283 
345 347 223 223 220 267 285 285 287 
226 263 296 356 356 301 233 304 309 
312 310 310 318 293 348 320 381 382 
384 201 246 246 248 238 240 242 199 
202 202 244 223 291 220 287 285 225 
226 350 289 350 
IDS_B 1 526 vtkIdType
363 365 363 324 387 395 387 367 393 
329 329 326 262 297 355 357 355 300 
298 333 254 265 330 259 261 208 211 
214 341 343 334 336 371 361 322 391 
369 357 297 228 298 230 230 303 303 
303 303 303 303 303 228 303 230 230 
298 298 300 393 393 395 367 324 365 
333 338 254 256 265 330 261 213 214 
208 373 343 371 336 369 391 322 272 
268 272 270 216 206 253 251 253 274 
219 276 279 282 344 281 344 346 266 
221 266 221 286 286 284 290 222 290 
224 224 288 288 227 227 227 227 227 
227 227 286 227 224 288 224 290 222 
284 284 251 253 206 253 216 270 270 
268 272 282 279 282 274 274 219 276 
281 346 344 266 221 266 365 324 393 
395 387 367 367 393 329 326 262 326 
297 357 297 357 355 300 298 355 355 
357 297 228 228 230 230 303 303 303 
303 303 303 303 228 303 230 300 298 
333 338 254 256 261 211 213 214 213 
341 373 343 373 371 336 358 358 361 
322 389 391 369 367 324 363 365 387 
387 326 262 326 329 329 259 261 208 
211 341 334 336 389 391 358 361 268 
268 206 270 274 274 219 276 279 282 
344 346 346 286 221 286 284 290 222 
284 290 224 288 288 224 227 227 227 
227 227 227 227 286 227 288 224 290 
216 219 346 346 344 281 344 266 255 
264 331 332 215 258 209 335 370 340 
342 362 360 323 388 390 390 269 271 
207 252 250 217 273 275 218 277 278 
277 280 283 345 345 347 267 220 285 
287 285 223 223 291 255 264 331 332 
337 339 215 258 257 260 212 209 212 
370 372 342 372 368 390 390 360 360 
362 323 226 225 225 226 289 291 285 
285 287 220 225 226 226 225 223 289 
291 291 223 250 207 252 217 269 271 
269 283 278 280 273 218 273 275 277 
345 347 267 345 220 325 394 366 328 
327 328 263 263 296 301 301 354 354 
356 296 229 302 231 231 302 302 302 
231 299 229 392 394 366 364 364 325 
386 327 328 263 328 296 337 339 257 
260 210 209 212 368 372 359 362 360 
388 269 207 250 217 218 280 280 283 
267 226 225 226 285 285 287 225 225 
226 225 289 289 223 223 291 258 210 
210 335 370 340 342 340 368 323 388 
388 362 359 360 359 362 250 207 207 
269 269 280 283 218 273 277 278 277 
267 364 364 325 386 392 356 296 354 
354 299 301 299 354 356 229 302 231 
302 231 231 302 302 229 231 229 301 
299 301 299 392 366 325 386 394 327 
263 263 328 296 
