# vtk DataFile Version 3.0
vtk output
ASCII
DATASET POLYDATA
POINTS 3091 float
2.78576 40.6952 3.61578 2.70542 40.6332 3.53544 3.02267 40.8779 4.03544 
2.97768 40.8432 3.95575 2.97768 40.8432 3.95575 3.02267 40.8779 4.45235 
3.02267 40.8779 4.03544 2.70542 40.6332 3.53544 2.66092 40.5989 3.53544 
3.20542 40.4451 5.03544 3.20542 40.5538 4.92494 3.20542 40.6952 4.7813 
3.20542 40.1338 5.35176 3.20542 40.3438 5.13835 3.20542 40.3438 5.13835 
3.20542 40.4451 5.03544 3.20542 40.0887 5.39754 3.20542 40.1338 5.35176 
3.12336 40.7773 4.63359 3.12336 40.7773 4.63359 3.02267 40.8779 4.45235 
2.17589 40.2247 3.53544 2.07605 40.1477 3.53544 2.66092 40.5989 3.53544 
2.17589 40.2247 3.53544 2.05801 40.1338 3.53544 2.05801 40.1338 3.53544 
2.03997 40.1199 3.53544 1.70542 39.8618 3.53544 1.70542 39.8618 3.53544 
1.61137 39.7892 3.53544 1.57439 39.7607 3.46992 1.52954 39.7261 3.39046 
1.61137 39.7892 3.53544 1.59541 39.7769 3.50715 1.59541 39.7769 3.50715 
1.32912 39.5715 3.03544 1.28448 39.5371 2.95637 1.06183 39.3653 2.56196 
1.48946 39.6952 3.31948 1.4551 39.6687 3.25862 1.32912 39.5715 3.03544 
1.52954 39.7261 3.39046 1.06183 39.3653 2.56196 1.03212 39.3685 2.53544 
0.467607 38.933 2.53544 0.249291 38.9564 2.34052 0.818366 39.2036 2.53544 
0.705419 39.1165 2.53544 0.705419 39.1165 2.53544 0.164891 38.9655 2.26517 
-0.0787884 38.9916 2.04762 -0.0924309 38.993 2.03544 -0.294581 39.0147 1.85496 
-0.294581 39.0147 1.85496 -0.654079 38.8749 1.71518 -0.0924309 38.993 2.03544 
-0.907229 38.7765 1.61676 -0.940266 38.751 1.59127 -0.956523 38.7385 1.57873 
-1.55943 38.0541 0.894368 -1.74943 37.9803 0.820498 -1.55943 38.1952 1.03544 
-1.01265 38.6952 1.53544 -1.29458 38.4777 1.31795 -1.29458 38.4777 1.31795 
-1.55943 38.2734 1.11364 -1.55943 38.2734 1.11364 -0.956523 38.7385 1.57873 
-1.00428 38.7017 1.5419 -1.00428 38.7017 1.5419 -2.29458 37.7683 0.608543 
-2.37684 37.7363 0.576563 -1.81428 37.955 0.795284 -2.13248 37.8313 0.671566 
-2.13248 37.8313 0.671566 -2.16234 37.8197 0.659959 -2.17218 37.8159 0.656132 
-2.17218 37.8159 0.656132 -2.29458 37.7683 0.608543 -1.74943 37.9803 0.820498 
-1.81428 37.955 0.795284 -2.48261 37.6952 0.535436 -2.76524 37.4772 0.535436 
-2.76524 37.4772 0.535436 -2.76524 37.3432 0.535436 -2.76524 37.1659 0.535436 
-2.76524 36.6952 0.535436 -2.76524 37.1659 0.535436 -2.76524 36.6205 0.460731 
-3.29458 36.4147 0.254926 -2.76524 36.6205 0.460731 -3.29891 36.413 0.253242 
-3.29891 36.413 0.253242 -3.36815 36.3861 0.226322 3.24752 37.3684 14.8623 
3.26383 37.3811 14.8495 3.21542 37.3432 14.8874 3.24752 37.3684 14.8623 
3.22403 40.1952 12.9903 3.26383 40.1952 12.9591 3.30363 40.1952 12.9279 
3.26383 39.5666 13.5354 3.09713 39.6952 13.5354 3.09314 39.8891 13.3416 
3.16644 40.1952 13.0354 3.0881 40.1338 13.0968 3.0881 40.1338 13.0968 
3.26383 38.2734 13.9572 3.26383 38.3263 13.9043 3.26383 38.416 13.8146 
3.26383 38.1952 14.0354 3.26383 38.2734 13.9572 3.26383 38.416 13.8146 
3.26383 38.6952 13.5354 3.26383 37.8308 14.3998 3.26383 37.9744 14.2562 
3.26383 37.6952 14.5354 3.26383 37.8308 14.3998 3.26383 37.9744 14.2562 
3.26383 37.3811 14.8495 3.26383 37.416 14.8146 3.02661 37.1952 15.0354 
3.26383 37.416 14.8146 2.75685 37.1952 15.2469 4.22941 40.5044 12.2022 
4.30945 40.4871 12.1395 4.46964 40.431 11.3707 4.46964 40.431 11.0687 
4.46964 40.431 11.507 4.44217 40.4584 12.0354 4.46964 40.431 12.0139 
4.44217 40.4584 12.0354 4.46964 40.431 11.0354 4.46964 40.1668 10.7712 
4.46964 40.1338 10.7383 4.46964 40.1338 10.7383 4.28554 39.9918 10.4121 
4.28554 39.9918 10.4121 4.20542 39.93 10.2702 4.20542 39.93 10.2702 
4.20542 39.93 10.1235 4.20542 39.93 10.1235 4.20542 39.93 10.0354 
4.20542 39.93 9.03544 4.20542 39.93 8.80067 4.20542 39.93 9.80067 
4.20542 39.93 9.59255 4.20542 39.93 9.59255 4.20542 39.93 9.17832 
4.20542 39.93 9.17832 4.20542 39.93 9.03544 4.20542 39.93 10.0354 
4.20542 39.93 9.80067 4.20542 39.93 8.80067 4.20542 39.93 8.64735 
4.20542 39.93 8.64735 4.20542 39.93 8.23313 3.26383 38.8406 13.5354 
3.26383 39.1368 13.5354 3.26383 39.2036 13.5354 3.70542 40.6177 12.613 
3.74887 40.6083 12.5789 3.80431 40.5963 12.5354 3.86673 40.5828 12.4865 
4.22941 40.5044 12.2022 3.55366 40.347 12.7319 3.46858 40.1952 12.7986 
3.55366 40.347 12.7319 4.20542 40.1338 7.08082 4.20542 40.1784 7.03544 
4.20542 39.93 7.80067 4.20542 39.93 7.70216 4.20542 39.93 7.70216 
4.20542 39.93 7.28793 4.20542 39.93 7.28793 4.20542 40.1338 7.08082 
4.20542 39.93 8.03544 4.20542 39.93 7.80067 4.20542 39.93 8.23313 
4.20542 39.93 8.03544 3.93321 40.2364 6.76323 3.86673 40.2505 6.69675 
3.97188 40.2281 6.8019 3.93321 40.2364 6.76323 3.70542 40.2848 6.53544 
3.42425 40.2575 6.25426 3.26383 40.1338 6.09384 3.51272 40.3258 6.34274 
3.42425 40.2575 6.25426 3.20542 40.0887 6.03544 3.20542 40.0887 5.6419 
3.26383 40.1338 6.09384 0.796184 35.4828 15.8386 0.795791 35.5263 15.7947 
0.241725 34.9633 16.2673 0.249291 34.9633 16.2673 -0.283153 34.9633 16.2673 
-0.294581 34.9633 16.2673 -0.758275 34.9633 16.2673 -0.956523 34.9633 16.2673 
-1.29458 34.9633 16.2673 1.84178 37.0449 15.3221 1.99207 37.1952 15.3221 
2.66092 37.1952 15.3221 2.70542 37.1952 15.2872 1.34874 36.5519 15.3221 
1.4551 36.6582 15.3221 1.31667 36.5198 15.3221 0.799635 35.101 16.2239 
0.798784 35.1952 16.1288 1.70542 36.9085 15.3221 1.84178 37.0449 15.3221 
1.49207 36.6952 15.3221 0.795392 35.5704 15.7502 0.794264 35.6952 15.6243 
1.20988 36.413 15.3221 1.31667 36.5198 15.3221 0.99207 36.1952 15.3221 
1.20988 36.413 15.3221 0.848745 36.0519 15.3221 0.791558 35.9947 15.3221 
0.797947 35.2877 16.0354 0.798097 35.2711 16.0522 0.800024 35.058 16.2673 
0.799635 35.101 16.2239 0.705419 34.9633 16.2673 -1.90434 34.3536 16.2673 
-1.70532 34.5526 16.2673 -1.37923 34.8787 16.2673 -1.70532 34.5526 16.2673 
-1.56273 34.6952 16.2673 -2.02643 34.2315 16.2673 -2.16234 34.0956 16.2673 
-2.02643 34.2315 16.2673 -2.29458 33.9633 16.2673 -2.60429 33.9633 16.2673 
-2.75827 33.9633 16.2673 -3.29458 33.9633 16.2673 -3.36815 33.8898 16.2673 
-3.56273 33.6952 16.2673 -3.63552 33.6224 16.2673 -3.67866 33.5793 16.2673 
-4.0442 33.2137 16.2673 -3.67866 33.5793 16.2673 -4.06273 33.1952 16.2673 
-4.0442 33.2137 16.2673 -4.17866 33.0793 16.2673 -4.29458 32.9633 16.2673 
-4.17866 33.0793 16.2673 -4.57396 32.9633 16.2673 -4.64574 33.0196 16.211 
-4.86974 33.1952 16.0354 -4.64574 33.0196 16.211 -5.17687 33.1952 15.7947 
-4.89997 33.1952 16.0117 -5.29458 33.1952 15.7024 -5.77978 33.1952 15.3221 
-5.45377 33.1952 15.5776 -6.00793 33.1952 15.3221 -6.19251 33.0106 15.3221 
-6.29458 32.9085 15.3221 -6.86788 32.9085 15.3221 -6.98559 32.9085 15.3221 
3.20542 40.0887 5.48911 -7.29458 32.9085 15.3221 -7.50793 32.6952 15.3221 
-7.51091 32.6922 15.3221 -3.97106 36.0334 -0.126326 -3.97106 35.8861 -0.273629 
-3.97106 35.8861 -0.273629 -4.21464 35.6952 -0.464564 -3.85912 36.1952 0.0354361 
-3.97106 36.1517 -0.00808683 -3.36815 36.3861 0.226322 -3.74582 36.2392 0.079486 
-3.74582 36.2392 0.079486 -4.21464 35.6153 -0.464564 -4.21464 35.4828 -0.464564 
-4.29458 35.4211 -0.464564 -4.21464 35.6153 -0.464564 -4.29458 35.4211 -0.464564 
-4.57396 35.2056 -0.464564 -4.57396 35.2056 -0.464564 -4.69576 35.1117 -0.464564 
-5.17687 34.5775 -0.464564 -5.17687 34.5526 -0.489442 -5.17687 34.5526 -0.489442 
-5.17687 34.1363 -0.905709 -5.17687 34.6952 -0.464564 -4.69576 35.1117 -0.464564 
-5.17687 34.7405 -0.464564 -5.17687 34.7405 -0.464564 -5.17687 34.0775 -0.964564 
-5.17687 33.8232 -1.21882 -5.17687 34.1363 -0.905709 -5.17687 33.8232 -1.21882 
-5.29458 33.8487 -1.31109 -5.49037 33.6952 -1.46456 -5.49037 33.6224 -1.46456 
-5.41412 33.755 -1.40479 -5.29458 33.8487 -1.31109 -5.22683 30.6952 -1.39681 
-5.17687 30.7058 -1.34685 -5.17687 30.6952 -1.34685 -5.49037 32.2085 -1.46456 
-5.49037 31.891 -1.46456 -5.6709 31.93 -1.60607 -5.49037 32.6952 -1.46456 
-5.49037 32.6922 -1.46456 -5.49037 32.6922 -1.46456 -5.49037 32.2085 -1.46456 
-5.49037 32.891 -1.46456 -5.49037 33.1387 -1.46456 -5.77978 31.9535 -1.69142 
-5.17687 29.3129 -0.964564 -5.17687 29.2669 -0.918573 -5.17687 28.9714 -0.623086 
-5.17687 29.5672 -1.21882 -5.29458 30.6808 -1.46456 -5.17687 29.9306 -1.34685 
-5.17687 29.9016 -1.34685 -5.17687 29.7756 -1.34685 -5.77978 30.5776 -1.94976 
-5.74 30.586 -1.90999 -5.40238 30.6579 -1.57237 -5.17687 28.6952 -0.346854 
-5.17687 28.0412 -0.346854 -5.17687 27.9692 -0.346854 -5.17687 27.9306 -0.346854 
-5.17687 27.6952 -0.346854 -5.17687 28.9306 -0.582273 -5.17687 28.7981 -0.449755 
-5.17687 29.6952 -1.34685 -6.12823 32.0288 -1.96456 -6.29458 32.0648 -2.09496 
-5.92413 31.9847 -1.80458 -6.12823 32.0288 -1.96456 -5.83523 31.9655 -1.73489 
-6.38269 32.0838 -2.16402 -6.38269 31.762 -2.48585 -6.38269 31.6952 -2.55267 
-6.38269 31.3795 -2.55267 -6.38269 30.8714 -2.55267 -6.38269 31.7392 -2.50862 
-5.79458 30.5744 -1.96456 -5.17687 27.3129 -0.729145 -5.17687 27.111 -0.931017 
-4.8109 26.8287 -0.847366 -5.99404 30.532 -2.16402 -5.86215 30.5601 -2.03213 
-6.16482 30.4957 -2.3348 -6.29458 30.4681 -2.46456 -6.38269 30.4493 -2.55267 
-6.38269 30.6952 -2.55267 -6.38269 30.8318 -2.55267 -7.65126 32.5519 15.3221 
-7.51091 32.6922 15.3221 -7.80726 32.3959 15.3221 -8.00793 32.1952 15.3221 
-7.80726 32.3959 15.3221 -8.19141 32.1952 15.3221 -8.29458 32.1952 15.2412 
-8.5571 32.1952 15.0354 -8.47217 32.1952 15.102 -8.79431 32.1952 14.8495 
-9.29458 32.1952 14.4573 -9.11646 32.1952 14.597 -9.39722 32.1952 14.3769 
-9.63604 32.1952 14.3769 -11.1821 32.1952 13.923 -11.0386 32.1952 14.0354 
-9.95875 32.1952 14.3769 -10.2946 32.1952 14.3769 -10.603 32.1952 14.3769 
-10.8838 32.1952 14.1568 -11.2059 32.1952 13.9043 -11.2946 32.1952 13.8348 
-11.8088 32.1952 13.4317 -11.7427 32.1952 13.4836 -12.2946 32.1952 13.4317 
-11.5281 32.1952 13.6518 -2.79458 21.5525 4.45235 -2.79458 21.5525 5.03544 
-2.76524 21.5299 5.06477 -2.76524 21.2024 5.06477 -2.76524 20.6952 5.06477 
-2.79458 21.5525 4.17815 -2.79458 21.5525 4.40635 -3.97106 26.4192 1.85896 
-3.97106 26.3422 1.85896 -3.97106 26.1808 1.85896 -4.21326 26.3677 1.61676 
[...]
CELL_DATA 2816
FIELD FieldData 2
Input0CellID 1 2816 vtkIdType
26266 26380 26380 26389 26269 26283 26283 26290 26290 
26290 26389 26389 26268 26269 26268 26268 26268 26272 
26270 26271 26271 26149 26150 26169 26169 26270 26150 
26153 26151 26151 26154 26153 26152 26142 26144 26152 
26143 26143 26143 25990 25990 26002 26003 26003 26143 
26143 25992 25989 25989 25989 25989 25990 25813 25813 
25991 25812 25813 25632 25632 25633 25633 25961 25961 
26367 26367 26255 26375 26367 26376 26376 26127 26127 
26127 26128 26139 26139 26140 25961 25961 25962 25976 
26363 26348 26348 26349 26349 26364 26335 26348 26336 
26336 26336 26337 26337 26317 26324 26324 26324 26325 
26316 26316 26254 26255 26255 26361 26362 26363 26363 
26365 26366 26367 26254 26308 26308 26308 26308 26309 
26316 26298 26298 26298 26299 26300 26301 26301 26291 
26300 25570 25595 25596 25596 25597 25598 25598 25979 
25980 25980 25787 25788 25593 25979 25981 25787 25570 
25570 25788 25788 25789 25790 25790 25570 25592 25592 
25594 25594 25595 25976 25359 25599 25359 25599 25359 
25358 25358 25361 25361 25362 25363 25363 25117 25117 
25118 25118 25119 25120 25121 25121 25122 25101 25101 
25101 25104 25104 25104 25103 25103 25105 25106 26290 
26290 25106 25107 24811 25621 25621 25622 25622 25633 
25633 25392 25392 25393 25396 25396 25175 25175 25176 
25396 25396 25166 25174 25166 24903 25167 25168 24385 
24385 24648 24647 24648 24648 24902 24903 24903 24647 
23788 23788 23778 24104 24104 24105 24105 24106 24107 
24107 23480 23480 23480 23481 23788 23789 23789 23778 
24105 24636 24646 24646 24647 24638 24638 24377 24377 
24637 24638 24106 23192 23193 23193 24094 24094 24094 
24095 24097 24097 24376 24376 24811 24812 24812 24813 
24813 24816 24816 24797 24797 24797 24799 24799 24787 
24798 24798 24802 24802 24802 24786 24786 24788 24788 
24789 24789 21207 21214 21214 21214 21207 21207 22864 
22865 22864 22527 22526 22527 22527 22864 22865 22867 
22867 23204 23204 23204 23205 23205 23214 20880 20881 
21206 20530 20530 20179 20180 20180 20187 20529 20530 
20537 20537 20880 20880 19843 20180 19830 19831 19836 
19836 19836 19837 20928 20929 20929 20929 20585 20236 
20236 20237 20584 20584 20584 20585 19897 20236 18793 
19178 19178 19178 19179 19179 19540 19540 19540 19541 
19896 19896 19896 18787 18792 18786 18786 18787 18792 
18793 24527 24526 24262 24262 24262 24263 23951 24262 
23950 24526 24527 23950 23953 23953 23953 23624 23624 
23625 23952 23627 23311 23626 23626 23628 23629 23629 
23629 23629 23310 23310 22620 22621 22958 22958 22958 
22959 23310 23311 22620 22620 24790 24791 24790 24791 
21203 21203 21936 21931 21936 21937 22270 22270 22270 
22271 21931 21930 21931 21594 21594 21260 21261 21594 
21595 21260 21260 19830 19821 19822 20160 20161 20161 
18327 18326 18326 18732 18727 18732 18732 21860 21861 
21861 21861 22185 22190 22184 22185 22518 22519 22184 
22519 22171 22172 22172 22178 22178 22179 22179 22519 
22170 22170 22171 22171 22171 22508 21529 21529 21860 
21196 21198 21202 21203 21527 21197 21526 21526 21529 
20843 20837 20837 20497 20504 20504 20497 20497 20497 
20843 20844 20837 20837 20836 20838 20833 20833 20839 
20839 20839 21164 21165 21165 21165 21500 21165 21488 
21499 21499 21488 21489 21490 21490 21490 23194 23194 
23193 21806 21806 21807 21807 21807 21473 21473 21788 
21788 21788 21789 21790 21791 21483 21491 21491 21472 
21473 21139 21139 20802 20803 20803 20803 20803 21138 
21139 21475 21474 20461 20802 20804 20805 20805 19809 
19809 19455 19460 19460 19460 19460 19461 19461 19808 
22586 22587 22931 22931 22931 22587 22587 24229 24230 
24230 24230 24230 23901 23901 23902 23902 23902 23902 
23903 23903 23274 23275 23903 23884 24212 23855 23856 
23856 23869 23869 23871 23871 24197 24198 24212 24196 
24196 24196 23857 23858 24212 24213 23869 23871 23871 
23885 23885 23885 23868 23868 23554 23554 23555 23870 
22918 22930 22930 22930 23275 23275 23256 23256 23264 
23264 23265 23265 23274 23275 23555 23523 23533 23532 
23532 23525 23525 23524 23524 23526 23232 23233 22882 
23233 23233 22875 22536 22874 22875 23858 23533 23542 
22875 22576 22577 22576 22577 22227 22227 22226 22568 
22227 22210 22211 22211 21872 22202 22210 22216 22216 
22217 22217 21872 21873 22531 22531 22531 22181 22181 
22186 22530 21538 21538 21539 21539 21873 21208 20874 
20874 20875 21209 21209 21208 20875 20868 20518 20524 
20524 20525 20525 20174 20518 20175 19116 19116 19116 
20162 20162 20168 20168 20168 20169 20175 19824 20507 
20499 20499 20499 20506 20507 20507 20508 20154 20154 
20154 20155 20498 20499 19814 19832 19832 19824 19825 
19826 19479 19479 19832 19116 19117 19117 19478 19478 
19809 20858 21522 21523 21192 22180 22181 21848 21849 
21849 21849 21849 21854 20852 20853 20853 20854 20854 
20854 21854 21522 21523 20858 21192 21192 21193 20508 
17975 18382 18382 18383 18383 17975 17975 17549 17549 
17974 16318 16318 16319 16319 17548 17549 17120 17120 
17121 17121 17121 16313 16313 16716 16716 16716 16717 
17120 18546 16543 16543 20390 20391 20390 20393 20393 
20393 20394 20038 20030 19675 19680 20038 19675 19675 
20032 20374 20374 20375 20375 20376 20376 20032 20033 
20033 20024 20025 20030 20030 20371 20370 20371 20370 
19671 19671 19674 19674 20383 20383 20388 20388 20388 
20389 20389 20391 20392 20382 20377 20382 19725 19726 
19726 19726 19369 19724 17287 17726 17726 17726 17726 
17728 17729 17300 17734 17734 17735 17735 19380 19383 
19385 19382 19382 19383 19378 19378 19378 19378 19379 
19380 19381 19384 19384 19387 19386 19386 19386 19387 
19389 19389 19008 19009 19009 19011 19011 19388 17728 
17729 20406 20407 20407 20407 20067 20067 20407 20066 
20066 19708 19708 19706 19706 19707 19709 19710 19710 
20066 19358 19359 19716 19357 19362 19362 19716 19716 
19716 18980 18979 19360 19361 19370 19370 19370 19370 
19362 19361 18981 19010 19011 18983 18983 18982 18983 
19014 19015 19015 19722 19722 19715 19725 19725 19723 
19723 19723 19723 19714 19348 19348 19348 19712 19712 
19713 19713 19713 19713 19714 18546 18547 18547 18955 
18956 18956 18957 18957 18957 19349 19349 16544 16543 
16543 16544 17301 17304 17304 17736 17304 17739 17739 
17739 19013 18986 18984 18985 18985 16157 16157 16158 
16158 16554 16554 16554 16156 16160 16159 16159 16159 
16162 16161 16546 16546 16545 16546 16547 16547 16161 
16161 16581 16582 16582 16172 16173 16173 16556 16163 
16163 16164 16165 16166 16166 16168 16169 16169 16170 
16171 16171 16174 16168 16173 16174 16174 16558 17818 
17826 17820 17821 17821 17818 17819 17822 17823 16952 
16953 17337 17337 16954 16954 18607 18607 18608 18608 
18609 18612 19030 19030 19012 17738 17739 17741 17741 
17740 17740 17743 18612 18610 18611 18613 17743 19012 
19012 19017 18614 18614 18614 19019 19016 19016 19020 
19020 19019 19019 19018 18600 18603 18603 18615 18615 
18616 18616 18600 18601 18602 18603 18576 18576 18576 
18577 17336 17322 17322 17320 17321 17322 17322 17322 
17323 17744 17745 17757 17757 17745 17756 18618 18619 
18578 18579 18579 18200 18203 18203 18175 18176 18176 
18578 17742 17744 17744 17336 18619 18619 18620 18621 
18621 18620 18221 18620 18203 18203 17341 17340 17342 
17342 17342 17343 17343 17338 17341 17341 17341 17827 
17826 17374 17827 17827 17828 17828 17375 17376 17369 
17369 17376 17377 17822 17822 17822 17824 17825 17370 
17371 17371 17371 17376 17377 17342 16583 16583 16966 
16966 16958 16959 16959 16559 16580 16583 16559 16560 
16561 16583 16966 16958 16959 16559 19822 19823 20160 
20160 20160 17924 17924 17924 17925 18326 20461 20461 
20461 20104 20449 20460 20460 20103 20105 20105 20448 
20448 20450 20451 20451 20450 20451 19771 20103 20103 
20117 19761 19416 19417 19417 19417 19762 19762 19762 
19761 19763 19763 19420 19429 19427 19427 19427 19428 
19428 19428 19429 19438 19439 19439 19446 19446 19427 
19436 19436 19437 19446 19454 19093 19093 19094 19085 
19085 19085 19085 19092 19092 19095 19453 19455 19753 
19754 19754 19755 19746 19748 19755 19755 19756 19749 
19749 19749 19750 19748 19748 19403 19404 19405 19747 
19405 19405 19405 19405 19406 19749 19749 19398 19398 
19398 19398 14143 13844 13845 13283 13283 13283 13283 
13567 13844 13557 13557 13844 13557 14427 14427 14426 
14426 14427 14427 14133 14134 14135 14135 14418 14426 
14134 14134 14135 14135 13838 13839 14128 13838 13838 
13838 13872 13872 13873 14162 14162 14162 14163 14459 
14459 14459 14448 14448 14451 14451 14459 14750 14451 
13597 13872 15301 15604 15020 15021 15021 15300 15300 
14745 14745 14745 14751 14751 15020 14450 14744 14744 
16665 17497 17496 17496 17496 17064 17064 17065 17065 
17496 16271 16664 16664 16665 16271 16313 15604 15604 
15605 15605 15950 15950 15951 15951 16312 16312 15300 
12363 12689 12689 12976 12977 12978 12978 12979 12968 
12969 12969 12969 12363 12679 12689 12680 13553 13553 
13834 13274 13275 13275 13276 13276 13282 13556 13282 
13556 13558 13558 13832 13833 13833 13834 13835 13546 
13547 13553 13544 13545 13546 13546 13547 13547 13256 
13256 13538 13538 12951 12951 12655 12655 12944 12945 
12950 12950 12950 13256 13257 13257 13258 12655 12655 
12048 12049 12052 12052 12053 13000 13000 13000 13001 
13302 13302 13590 13591 13596 13596 13596 13596 13302 
13303 12708 12702 12703 12708 12708 12708 12385 12384 
12384 12385 12709 12053 12053 11733 11011 11374 11374 
11374 11375 11732 11380 11381 11381 11381 11381 11733 
11733 11010 15544 15545 15545 15552 15553 15553 15545 
15536 15537 15226 15226 15227 15537 15537 15537 15537 
15226 14952 14952 14952 14953 14685 14952 15562 15902 
15902 15903 15903 16270 16270 15562 15563 15563 15560 
15561 15561 15561 14692 14692 14384 14384 14384 14385 
14692 13813 13820 13821 14103 13821 13813 14102 14102 
14103 13534 13252 13252 13252 13253 13254 13534 13534 
13535 13254 13263 13263 12946 12947 12949 12955 12955 
12955 13821 13821 13821 12947 12652 12650 12940 12651 
12651 12651 12005 12332 12333 12333 12333 11692 11693 
11693 11693 12005 12005 11687 12004 11686 11333 11686 
11686 17712 17712 18141 18142 18143 18143 18143 17264 
17264 17265 17272 17712 17713 17713 17265 17267 17712 
17712 18142 18143 17250 17250 17250 17251 17692 17693 
16852 16852 16852 17692 17692 19670 19305 18923 18923 
18923 19304 19305 19305 19670 18116 18522 18522 18519 
18516 18516 18516 18517 18517 18517 18518 18512 18513 
18518 18518 18922 18116 18117 18117 16525 16526 16526 
16526 16527 16503 16503 16525 16525 16525 16526 17282 
17282 17285 16529 16489 16503 16502 16489 16490 16490 
16490 16892 16893 16893 17282 15766 16101 16101 16100 
16100 16101 16474 16475 16475 16869 16869 16870 16868 
16868 16869 16869 16853 15757 16092 16092 16092 16092 
16451 16458 16078 16078 16079 16079 16450 16451 16451 
16080 16087 16086 16086 17285 17285 17284 17284 17284 
12039 12040 12040 9405 9405 9405 8913 8913 8982 
8979 8980 8980 8981 8981 8979 9422 8976 8977 
8977 8978 8951 8954 8954 8950 8951 8951 8951 
8951 8954 8973 8974 8974 8975 9420 9420 9421 
9422 9422 9422 8928 9404 8948 8948 8976 8975 
9458 9459 9459 9460 9460 9457 9458 8982 9454 
9454 9455 9455 8983 9456 12369 12360 12361 12361 
12363 12368 12368 12368 12369 12041 9431 9432 9432 
9461 9461 9432 8939 8940 8940 8941 8941 8942 
8943 8943 8944 8944 8971 8945 8946 8920 8945 
8945 8946 8920 8920 8919 8919 8919 8921 8922 
8922 8923 8902 8902 8902 8923 8923 8923 8902 
8924 8925 8925 8925 8901 8901 8902 8278 8278 
8279 8259 8257 8259 8259 8279 8258 8260 8261 
8261 12339 12339 12336 12337 12337 12327 12327 12327 
12328 12328 12335 12336 12337 12338 12338 12326 12326 
11995 11983 11984 11984 11984 12654 12655 12647 12646 
12649 12317 12331 12331 12647 12648 12648 12318 12318 
12318 12318 12318 12318 11985 11985 11985 11985 11986 
11667 11668 11654 11654 11666 11667 11667 11668 11974 
11640 11642 11643 11643 11643 11645 11646 11281 11281 
11282 11301 11301 11301 11644 11639 11639 11640 11640 
11641 11641 11641 11298 11278 11278 11279 11279 11279 
10225 10220 10221 10224 9808 9808 9809 10220 10220 
9325 9808 8261 8243 8244 8261 7694 7706 7691 
7691 7705 7705 7705 7705 7694 7694 7694 7694 
7188 7188 7675 7676 7169 7188 7187 7169 6677 
7171 7172 7172 6676 7154 7154 7154 7171 7172 
6677 6677 6678 6678 6154 6663 6664 6141 6153 
6154 6154 6154 7170 7170 6679 6680 7153 7170 
7170 7170 9320 9321 9324 9324 9324 9324 8840 
8840 8841 8840 8840 8834 8834 8834 8835 8828 
8829 8185 8190 8191 8828 8828 8185 8185 8185 
8179 8179 8179 8179 8184 6129 6140 6127 6129 
6140 6140 6129 6129 6115 6115 6128 6114 6115 
6098 6099 6099 6099 5144 5146 5149 5150 5148 
5149 5149 5147 5146 5146 5146 5140 5140 5140 
5140 5599 5600 5597 5597 5598 5598 5599 5600 
5600 5600 6096 6096 5596 5140 5140 5141 5141 
5151 5151 5151 5595 5596 6098 10182 10182 10183 
11332 11333 10968 10968 10969 11332 11332 10968 10582 
10582 10582 10583 11010 11010 10624 10624 10624 10624 
10625 8813 8813 9295 9295 9296 9296 9296 9778 
10182 9778 9778 9294 9777 9777 8818 8813 8813 
9826 9827 9372 9372 9834 9834 9372 8896 8897 
9370 9370 9371 8913 8897 8897 9827 10234 9823 
9826 9826 10234 10234 10231 10234 9834 10630 10630 
10630 10630 10626 10626 10626 10627 10222 10222 10223 
10222 10622 10623 10626 10218 10218 10218 10219 10214 
7730 8264 8265 8265 8265 11366 11366 11716 11716 
11717 12039 11717 11718 11718 11719 11719 12028 12040 
12040 11367 10994 10995 11358 11358 11367 10995 10995 
10986 10604 10605 10212 10213 10214 10215 10215 10612 
10612 10613 10606 10606 10605 10605 10605 10606 8280 
8280 8280 8281 8912 7731 7731 7731 7732 7754 
7732 7733 12336 6226 6226 6227 6227 6227 6228 
6228 6228 6228 6227 6228 11663 11664 11664 11665 
11665 10516 10517 11652 11654 11668 11654 11311 11311 
11640 11640 11653 11653 11293 11293 11294 11297 10927 
11294 11295 11296 10924 10924 10925 10926 10928 10928 
10928 11297 11297 11298 10929 11277 11278 10541 10541 
10924 10924 10522 10518 10519 10518 10502 10502 10519 
10521 10522 15459 15775 15757 15765 15766 16080 16080 
16081 16081 16086 15769 15768 15768 15769 15769 15458 
15459 15459 15461 15775 15776 15461 15461 15461 15768 
15777 10022 10022 10024 10024 10025 10026 10028 10024 
10025 10026 10036 10036 10036 9606 9616 10027 10039 
10040 10040 10039 10039 9604 9605 9605 9605 9606 
9109 9109 9123 9615 9616 9616 9109 9122 8498 
8498 8496 9122 9130 8519 8519 8519 8498 8517 
8520 8520 8541 8541 8519 8520 8541 8543 8619 
8619 8621 8616 8618 8619 8619 8621 8591 8591 
8561 8561 8561 8563 8563 8563 8589 8616 8589 
8591 8591 8653 8686 8686 8652 8652 8652 8652 
5405 4973 4973 4973 5404 5404 5412 5412 5405 
5405 4559 4559 4972 4972 4974 4973 4973 4559 
4564 4565 4973 4180 4181 4180 4180 3809 4181 
4182 4182 3808 3808 6904 7408 7408 6403 6905 
6905 6905 6402 6402 6402 6403 6403 5865 5872 
5872 5873 5873 7920 7921 7403 7403 7921 7402 
7402 7402 7402 7408 8454 9088 8455 8455 9091 
9092 8455 9091 9091 9092 9083 9092 9092 9586 
9586 9586 9586 9587 9587 9592 10039 9591 9591 
9591 9593 9604 9107 9107 9108 9615 9109 9110 
9110 8497 8498 8496 9122 9122 4330 4331 4328 
4327 3958 3959 4327 3961 3955 3607 4331 4331 
4331 4331 4332 3958 4328 4329 4329 4332 3961 
3959 3960 3609 3607 3608 3609 3955 3955 3956 
3957 3957 4725 4333 4723 4723 4724 4725 4725 
4727 4728 4738 4738 4738 5145 5145 5145 5145 
4723 8687 9204 9205 9205 8724 8722 8723 8723 
9204 8723 8725 9203 8686 8708 8708 8708 8711 
8711 3261 3260 3260 3261 3235 3238 3239 3259 
2914 2889 2892 2892 2913 2913 2914 3240 3241 
3239 2889 2889 3238 3238 3239 3223 3240 3243 
3243 3224 3588 3589 3607 3224 3224 3586 3586 
2556 10122 10122 9703 9703 9703 10110 9685 9686 
9700 9684 9685 9685 9685 9685 9686 9684 9216 
9216 9217 9217 9218 9702 9703 10110 10110 10110 
10111 10122 10123 3438 3439 3444 3808 3438 3438 
3439 3444 3445 3445 3084 3085 3086 3086 3087 
2736 2736 2737 2377 2377 2736 2736 2736 2736 
2376 2025 2025 2376 2378 2379 2024 2025 2027 
2036 2026 2026 2026 2036 2036 1700 1701 1368 
1368 1369 1700 1700 1702 1702 1703 1370 1371 
1371 1372 1372 1096 1096 1098 1098 1099 1099 
1374 1094 1364 1365 1365 1141 1141 1128 1129 
1140 1140 1140 1119 1128 1128 1091 1093 1092 
1092 1092 1095 1107 1108 1374 1094 1094 1095 
1106 1106 1108 1118 1118 1119 1174 1155 1155 
1166 1166 1167 1167 1155 1152 1155 1155 2537 
2537 2556 2535 2538 2538 2555 2194 2194 2535 
2186 2187 2187 2537 2556 2556 2193 2193 2172 
2172 2184 2184 2184 2185 1865 1866 2171 1864 
1865 1853 1863 1855 1855 1852 1852 1853 1854 
1854 1839 1839 1822 1823 1823 1823 1838 1839 
1802 1518 1801 1517 1514 1515 1516 1516 1517 
1496 1496 1499 1499 1499 1179 1180 1180 1180 
1479 1480 1496 1174 1175 1175 1087 1086 1087 
1088 1088 1089 1089 1089 1090 1090 1090 
Input1CellID 1 2816 vtkIdType
10480 10479 10480 10479 10480 10476 10477 10475 10476 
10507 10477 10478 11607 11607 11608 11627 11628 11628 
11629 11628 11629 12513 12513 11630 12513 11630 12515 
12535 12515 12535 12535 13580 13580 13581 13581 13581 
13581 13583 13584 14519 14520 14504 14504 14520 14503 
14504 15364 14518 14521 15363 15364 14518 15364 15365 
15364 15378 15378 15377 15378 15377 15391 10528 10529 
10468 10471 10486 10486 10469 10469 10486 10511 10513 
10530 10513 10530 10531 10530 10531 10542 10531 10542 
9578 9580 9581 9578 9581 9578 9583 9583 9583 
9599 9600 9600 9601 9603 9601 9602 9603 9601 
9603 9604 10512 10487 10512 10470 10470 9579 10470 
10470 10470 10470 10513 9591 9605 9606 9607 9605 
9605 9590 9591 10472 9591 10474 10472 10474 10505 
10505 12562 13628 13628 13629 13629 13629 14550 11658 
10543 11658 12550 12550 12575 11659 11659 11659 12563 
12564 12551 12565 12565 12564 12565 12574 12574 12575 
12575 12576 12576 10543 14564 14550 14551 14551 14565 
14565 15408 15408 15409 15409 15409 16516 16516 16526 
16526 16527 16527 16527 16527 17417 17417 17416 17417 
17419 17418 17419 18202 18202 18203 18203 18203 10505 
10506 18902 18902 18902 16499 16501 16498 16499 16497 
16498 16501 16513 16501 16513 17399 17401 17412 17401 
17400 17401 17412 17412 17415 17415 17415 17415 17465 
17466 17439 17439 17427 17438 17427 17426 17427 17438 
17478 17479 17478 17465 17466 17466 17480 17464 17464 
17465 17501 17522 17523 17523 17500 17500 17501 17481 
17481 18214 18214 18215 18215 18214 18217 18228 18229 
18228 18228 18238 17523 17523 17546 18238 18239 18240 
18238 18240 18241 18241 18229 18910 18910 18911 18911 
19573 19572 19573 19572 19574 19575 19574 20354 20890 
20354 20355 20355 20890 20891 20890 20893 20892 21514 
20892 20893 15615 15615 15650 15651 15617 15618 16644 
16644 16643 16708 16674 16674 16677 16646 16674 16646 
17541 17542 17543 17544 17541 17542 17541 15651 15651 
15617 15719 15748 15748 15748 15751 15748 15716 15716 
15683 15716 15682 15683 15778 15778 15780 15780 15778 
15780 15781 15778 24034 24000 24033 24034 24034 24094 
24095 24094 24066 24067 24094 24066 24116 24116 24169 
24154 24155 24169 24155 24156 24138 24139 24156 24138 
24138 24116 24117 24176 24176 24177 24178 24177 24168 
24168 21520 21529 21527 21528 21529 21529 21538 21538 
21538 21521 21521 22102 22102 22103 22111 22111 22742 
22111 22111 22742 23739 22741 22742 23739 22740 22741 
23700 23739 23776 23777 23814 23814 23776 23814 23815 
23776 23738 23738 23852 23853 21520 21514 21515 21515 
15617 15620 23928 23928 23890 23890 23852 23890 23891 
23852 23929 23930 23930 23966 23967 23966 23966 23930 
23930 24000 24001 15784 15784 15784 15757 15756 15757 
24180 24180 24181 24174 24173 24173 24180 16767 16740 
16741 16767 16741 16741 16743 16743 16708 16708 16744 
16711 16747 16746 16747 16745 16746 16744 16745 16710 
16710 16714 16712 16713 16714 16710 16766 16787 16766 
15619 15619 15619 15619 15619 15619 15619 15621 15621 
15694 15694 16808 15727 15727 15756 15695 15726 15729 
15695 15695 16806 16807 15694 16808 16798 16810 16808 
16809 16810 16798 16788 16798 16799 16790 16790 16791 
16790 16791 16793 16793 16792 16793 17607 17544 17545 
17545 17596 17597 17596 17597 17594 17599 17611 17597 
17599 17600 17599 17599 17599 17594 17594 17607 18322 
18322 18321 18322 18999 18332 18333 18341 18999 18332 
18332 18322 18322 19001 19000 19001 19000 19001 22901 
22918 22937 22918 22919 22937 22938 22937 22938 22918 