# vtk DataFile Version 3.0
vtk output
ASCII
DATASET POLYDATA
POINTS 1251 float
-0.999497 -0.0317279 0 -0.999497 0.0317279 0 0 0 -1e-06 
-0.987439 -0.158001 0 -0.97543 -0.220311 0 -0.823677 -0.56706 0 
-0.786053 -0.618159 0 0.991955 -0.126592 0 0.981929 -0.189251 0 
0.950071 -0.312033 0 0.928368 -0.371662 0 0.766044 -0.642788 0 
0.723734 -0.690079 0 0.902927 -0.429795 0 0 0 5 
0.580057 -0.814576 5 0.630553 -0.776146 5 0.472271 -0.881453 5 
0.415415 -0.909632 5 0.0475819 -0.998867 5 -0.015866 -0.999874 5 
-0.701475 -0.712694 5 -0.745264 -0.666769 5 -0.266474 -0.963842 5 
-0.327068 -0.945001 5 -0.888835 0.458227 0 -0.916108 0.400931 0 
-0.745264 0.666769 0 -0.786053 0.618159 0 -0.823677 0.56706 0 
0.0475819 0.998867 0 -0.015866 0.999874 0 -0.142315 0.989821 0 
-0.204807 0.978802 0 -0.5 0.866025 0 -0.55392 0.83257 0 
-0.327068 0.945001 0 -0.386345 0.922354 0 -0.995472 -0.095056 0 
-0.959493 -0.281733 0 -0.939693 -0.34202 0 -0.745264 -0.666769 0 
-0.701475 -0.712694 0 -0.857983 -0.513677 0 -0.888835 -0.458227 0 
-0.916108 -0.400931 0 -0.916108 -0.400931 5 -0.939693 -0.34202 5 
-0.786053 -0.618159 5 -0.97543 -0.220311 5 -0.987439 -0.158001 5 
1 0 0 0.997987 -0.0634239 0 0.967949 -0.251148 0 
0.841254 -0.540641 0 0.80527 -0.592908 0 0.873849 -0.486197 0 
0.723734 -0.690079 5 0.766044 -0.642788 5 0.873849 -0.486197 5 
0.902927 -0.429795 5 0.841254 -0.540641 5 0.928368 -0.371662 5 
0.950071 -0.312033 5 0.110838 0.993838 5 0.173648 0.984808 5 
0.997987 0.0634239 5 0.991955 0.126592 5 0.678509 -0.734592 5 
0.527225 -0.849725 5 0.173648 -0.984808 5 0.110838 -0.993838 5 
0.356886 -0.934148 5 0.29692 -0.954902 5 0.235759 -0.971812 5 
0.678509 -0.734592 0 0.415415 -0.909632 0 0.472271 -0.881453 0 
-0.60561 -0.795762 5 -0.654861 -0.75575 5 -0.204807 -0.978802 5 
-0.142315 -0.989821 5 -0.07925 -0.996855 5 -0.386345 -0.922354 5 
-0.444067 -0.895994 5 -0.015866 -0.999874 0 -0.07925 -0.996855 0 
-0.266474 -0.963842 0 -0.204807 -0.978802 0 -0.444067 -0.895994 0 
-0.386345 -0.922354 0 -0.5 -0.866025 0 -0.5 -0.866025 5 
-0.995472 0.095056 0 -0.987439 0.158001 0 -0.959493 0.281733 0 
-0.97543 0.220311 0 -0.939693 0.34202 0 -0.654861 0.75575 0 
-0.701475 0.712694 0 -0.857983 0.513677 0 -0.07925 0.996855 0 
-0.60561 0.795762 0 -0.444067 0.895994 0 -0.327068 0.945001 5 
-0.266474 0.963842 5 -0.204807 0.978802 5 -0.386345 0.922354 5 
-0.444067 0.895994 5 -0.60561 0.795762 5 -0.55392 0.83257 5 
-0.995472 -0.095056 5 -0.999497 -0.0317279 5 -0.857983 -0.513677 5 
-0.888835 -0.458227 5 -0.823677 -0.56706 5 -0.959493 -0.281733 5 
0.80527 -0.592908 5 0.991955 -0.126592 5 0.997987 -0.0634239 5 
0.981929 -0.189251 5 0.967949 -0.251148 5 -0.015866 0.999874 5 
0.0475819 0.998867 5 0.678509 0.734592 0 0.723734 0.690079 0 
0.472271 0.881453 0 0.415415 0.909632 0 0.356886 0.934148 0 
0.235759 0.971812 0 0.173648 0.984808 0 1 -2.44929e-16 5 
0.928368 0.371662 0 0.950071 0.312033 0 0.967949 0.251148 0 
0.981929 0.189251 5 0.80527 0.592908 0 0.841254 0.540641 0 
0.902927 0.429795 0 0.0475819 -0.998867 0 0.630553 -0.776146 0 
0.580057 -0.814576 0 0.527225 -0.849725 0 0.356886 -0.934148 0 
0.29692 -0.954902 0 0.173648 -0.984808 0 0.235759 -0.971812 0 
-0.142315 -0.989821 0 -0.327068 -0.945001 0 -0.654861 -0.75575 0 
-0.60561 -0.795762 0 -0.55392 -0.83257 0 -0.07925 0.996855 5 
-0.266474 0.963842 0 -0.5 0.866025 5 -0.654861 0.75575 5 
-0.701475 0.712694 5 -0.786053 0.618159 5 -0.745264 0.666769 5 
-0.916108 0.400931 5 -0.888835 0.458227 5 -0.857983 0.513677 5 
-0.823677 0.56706 5 0.580057 0.814576 0 0.630553 0.776146 0 
0.527225 0.849725 0 0.723734 0.690079 5 0.678509 0.734592 5 
0.415415 0.909632 5 0.472271 0.881453 5 0.29692 0.954902 0 
0.110838 0.993838 0 0.997987 0.0634239 0 0.991955 0.126592 0 
0.967949 0.251148 5 0.950071 0.312033 5 0.981929 0.189251 0 
0.766044 0.642788 0 0.873849 0.486197 0 0.873849 0.486197 5 
0.841254 0.540641 5 0.902927 0.429795 5 0.110838 -0.993838 0 
-0.55392 -0.83257 5 -0.999497 0.0317279 5 -0.142315 0.989821 5 
0.630553 0.776146 5 0.580057 0.814576 5 0.527225 0.849725 5 
0.235759 0.971812 5 0.80527 0.592908 5 0.928368 0.371662 5 
-0.995472 0.095056 5 -0.987439 0.158001 5 -0.97543 0.220311 5 
-0.959493 0.281733 5 -0.939693 0.34202 5 0.356886 0.934148 5 
0.766044 0.642788 5 0.29692 0.954902 5 -0.701475 -0.712694 1.02061 
-0.704807 -0.7092 1.0212 -0.719207 -0.694097 2.97531 -0.704807 -0.7092 2.9788 
-0.727183 -0.685732 1.02663 -0.736254 -0.676219 1.02883 -0.701475 -0.712694 2.97939 
-0.727183 -0.685732 2.97337 -0.745264 -0.666769 1.03101 -0.745264 -0.666769 2.96899 
-0.916108 -0.400931 1.09124 -0.934506 -0.354976 1.09964 -0.925994 -0.376238 2.90425 
-0.916108 -0.400931 2.90876 -0.939693 -0.34202 1.10201 -0.939693 -0.34202 2.89799 
-0.769435 -0.637963 2.96292 -0.766474 -0.641493 2.96384 -0.753692 -0.656726 1.03306 
-0.766474 -0.641493 1.03616 -0.786053 -0.618159 2.95775 -0.786053 -0.618159 1.04225 
-0.987439 -0.158001 2.87276 -0.98053 -0.193847 2.87646 -0.984735 -0.172031 1.1258 
-0.987439 -0.158001 1.12724 -0.97543 -0.220311 1.12081 -0.97543 -0.220311 2.87919 
0.450071 -0.892456 2.31203 0.462179 -0.886455 2.2708 0.467949 -0.883596 1.74885 
0.462179 -0.886455 1.7292 0.472474 -0.881336 1.76889 0.472271 -0.881453 1.76799 
0.467949 -0.883596 2.25115 0.445849 -0.894549 2.32363 0.472474 -0.881336 2.23111 
0.452965 -0.891022 1.69782 0.420263 -0.907229 2.39018 0.428368 -0.903212 2.37166 
0.428368 -0.903212 1.62834 0.420263 -0.907229 1.60982 0.435314 -0.89977 1.64742 
0.415415 -0.909632 1.59874 0.450071 -0.892456 1.68797 0.415415 -0.909632 2.40126 
0.435314 -0.89977 2.35258 -0.07925 -0.996855 2.90699 -0.0448028 -0.998496 2.88992 
-0.0674988 -0.997415 1.09884 -0.07925 -0.996855 1.09301 -0.0426287 -0.998599 2.88884 
-0.0653065 -0.997519 1.09992 -0.015866 -0.999874 1.1254 -0.0277289 -0.999309 1.11855 
-0.0277289 -0.999309 2.88145 -0.015866 -0.999874 2.8746 -0.221738 -0.974695 2.96006 
-0.204807 -0.978802 2.95538 -0.204807 -0.978802 1.04462 -0.221738 -0.974695 1.03994 
-0.229938 -0.972706 2.96233 -0.253757 -0.966927 1.03109 -0.266474 -0.963842 2.97228 
-0.264241 -0.964384 1.02819 -0.266474 -0.963842 1.02772 -0.264241 -0.964384 2.97181 
-0.432194 -0.901416 1.00274 -0.409486 -0.911786 2.99545 -0.389162 -0.921068 2.99384 
-0.432491 -0.90128 1.00272 -0.389162 -0.921068 1.00616 -0.386345 -0.922354 1.00657 
-0.386345 -0.922354 2.99343 -0.444067 -0.895994 2.9982 -0.444067 -0.895994 1.0018 
-0.432194 -0.901416 2.99726 -0.477618 -0.878017 2.99927 -0.472969 -0.880508 2.99919 
-0.452418 -0.891519 1.00113 -0.452418 -0.891519 2.99887 -0.455265 -0.889994 1.00109 
-0.495164 -0.868616 1.00045 -0.5 -0.866025 1.00038 -0.5 -0.866025 2.99962 
-0.386345 0.922354 1.00657 -0.362516 0.931458 2.99001 -0.369425 0.928819 2.991 
-0.369425 0.928819 1.009 -0.339082 0.940411 1.01336 -0.386345 0.922354 2.99343 
-0.326352 0.945224 2.98481 -0.327068 0.945001 2.98491 -0.327068 0.945001 1.01509 
-0.326352 0.945224 1.01519 -0.409253 0.911892 2.99544 -0.409486 0.911786 2.99545 
-0.432491 0.90128 1.00272 -0.389162 0.921068 2.99384 -0.409253 0.911892 1.00456 
-0.389162 0.921068 1.00616 -0.444067 0.895994 1.0018 -0.444067 0.895994 2.9982 
-0.558075 0.829611 1.00214 -0.55392 0.83257 1.00194 -0.55392 0.83257 2.99806 
-0.574626 0.817825 2.99708 -0.595221 0.80316 1.00493 -0.57925 0.814533 1.00315 
-0.57925 0.814533 2.99685 -0.60561 0.795762 1.00609 -0.600701 0.799257 2.99446 
-0.60561 0.795762 2.99392 -0.997188 -0.068047 2.86753 -0.995472 -0.095056 2.86845 
-0.995472 -0.095056 1.13155 -0.998584 -0.0460808 1.13322 -0.999497 -0.0317279 2.8663 
-0.999497 -0.0317279 1.1337 -0.989251 -0.143798 1.12822 -0.99205 -0.121867 2.87028 
-0.87604 -0.481224 2.92629 -0.862696 -0.505207 2.93139 -0.862696 -0.505207 1.06861 
-0.864582 -0.501818 1.06933 -0.857983 -0.513677 2.93319 -0.857983 -0.513677 1.06681 
-0.886345 -0.462702 2.92235 -0.886345 -0.462702 1.07765 -0.888835 -0.458227 1.07878 
-0.888835 -0.458227 2.92122 -0.910171 -0.413404 1.08853 -0.91044 -0.412839 1.08865 
-0.91044 -0.412839 2.91135 -0.900203 -0.434346 2.91603 -0.837805 -0.545076 2.9409 
-0.850683 -0.525037 1.06402 -0.827068 -0.561783 1.055 -0.827068 -0.561783 2.945 
-0.823677 -0.56706 2.94606 -0.823677 -0.56706 1.05394 -0.808257 -0.588002 2.95085 
-0.803967 -0.593828 2.95218 -0.789334 -0.613704 1.04327 -0.793914 -0.607482 1.04469 
-0.944065 -0.328709 1.10401 -0.944067 -0.328702 2.89599 -0.951146 -0.307147 2.8922 
-0.944067 -0.328702 1.10401 -0.959493 -0.281733 2.88773 -0.959493 -0.281733 1.11227 
-0.974536 -0.223754 1.12033 -0.974536 -0.223754 2.87967 -0.966237 -0.25574 2.88412 
-0.971863 -0.234056 1.1189 0.0475819 0.998867 2.83618 0.0272255 0.99919 2.84973 
0.0430861 0.998939 1.16083 0.0475819 0.998867 1.16382 -0.00147977 0.999646 1.1337 
0.0203462 0.9993 2.8537 0.0107331 0.999452 1.14075 0.0272255 0.99919 1.15027 
-0.0112404 0.999801 2.87193 -0.015866 0.999874 1.1254 -0.015866 0.999874 2.8746 
0.0329372 -0.9991 1.15407 0.0272255 -0.99919 1.15027 0.0107331 -0.999452 2.85925 
0.0113035 -0.999443 2.85892 -0.0112404 -0.999801 1.12807 0.0272255 -0.99919 2.84973 
0.0430861 -0.998939 2.83917 0.0475819 -0.998867 1.16382 0.0475819 -0.998867 2.83618 
0.491955 -0.870089 2.12659 0.493922 -0.868953 2.10599 0.493922 -0.868953 1.89401 
0.491955 -0.870089 1.87341 0.5 -0.865444 2 0.48869 -0.871974 2.14699 
0.499342 -0.865824 1.97927 0.48869 -0.871974 1.85301 0.497987 -0.866606 2.06342 
0.481929 -0.875877 1.81075 0.472271 -0.881453 2.23201 0.497987 -0.866606 1.93658 
0.481929 -0.875877 2.18925 0.383019 -0.923202 1.53159 0.374624 -0.926718 1.51531 
0.402927 -0.914863 1.57021 0.373849 -0.927042 1.5138 0.393731 -0.918715 2.44763 
0.402927 -0.914863 2.4298 0.38572 -0.922071 2.46317 0.356886 -0.934148 2.51453 
0.363623 -0.931326 1.49672 0.356886 -0.934148 1.48547 0.373849 -0.927042 2.4862 
0.341254 -0.939558 1.45936 0.326153 -0.944785 2.56258 0.341254 -0.939558 2.54064 
0.351449 -0.93603 2.52361 0.339416 -0.940194 1.45669 0.30527 -0.952012 2.59291 
0.316438 -0.948147 2.57669 0.316438 -0.948147 1.42331 0.30527 -0.952012 1.40709 
[...]
CELL_DATA 1489
SCALARS Distance double
LOOKUP_TABLE default
1.00692 1.00595 1.00034 1.31154 1.29563 1.23504 1.28779 2.13317 2.10412 
2.04316 2.00041 2.01526 1.00308 1.00014 1.00034 1.06428 1.03682 1.006 
1.01746 1.00647 1.0068 1.00459 1.0053 1.00053 1.00014 1.00112 1.00215 
1.00388 1.00308 2.00275 2.00013 2.00445 1.31555 1.31421 1.30753 1.30222 
1.2584 1.24711 1.26904 1.27888 2.16147 2.19283 2.18603 2.19899 2.20443 
2.05874 2.21767 2.15221 2.14273 2.12363 2.11405 2.05874 2.05055 2.0942 
2.08472 2.06726 2.07575 1.22209 1.15272 2.00139 2.00089 2.01954 2.02471 
2.03662 2.03061 2.00876 2.01185 1.05416 1.02921 1.01242 1.0089 2.00587 
1.0068 1.00647 1.0053 1.00595 1.00459 1.00388 1.00101 1.00053 1.00215 
1.00112 1.04539 1.05416 1.00165 1.0033 1.0089 1.01242 2.01526 2.01954 
2.01185 2.00876 2.00222 2.00496 2.00477 2.00123 2.00196 2.00063 2.00023 
2.00344 2.004 2.17855 2.17035 2.21767 2.21573 2.20907 2.21285 2.04316 
2.05055 1.22209 1.15272 1.13863 1.09887 2.21865 2.21865 1.29563 1.30222 
2.21573 1.2584 1.28779 1.06428 1.19464 1.20842 1.18098 1.1671 1.13863 
1.12532 1.09887 1.11211 1.03682 1.04539 1.01746 1.02315 1.00101 1.00165 
1.006 1.0033 2.03662 1.02315 1.02921 2.00587 2.00369 2.00139 2.00089 
2.00013 2.00041 2.00196 2.00123 2.00023 2.00063 1.19464 1.20842 1.18098 
1.1671 2.15221 2.10412 1.11211 1.12532 1.0755 1.08673 1.31555 1.31421 
2.20907 2.21285 1.30753 1.31154 1.23504 1.24711 1.26904 1.27888 2.18603 
2.19283 1.08673 1.0755 2.00222 2.00369 2.00502 2.02471 2.03061 2.13317 
2.14273 2.12363 2.11405 2.06726 2.17855 2.20443 2.19899 2.00477 2.00496 
2.00445 2.004 2.00275 2.00344 2.0942 2.16147 2.17035 2.07575 2.08472 
0.33757 0.664808 0.337083 0.674022 0.336399 0.665505 0.665614 0.336005 1.3359 
0.664736 0.690589 0.340662 0.658494 0.339726 0.658855 1.34115 0.665386 0.335626 
1.33788 0.665978 0.337569 0.664521 0.33679 0.676437 0.656228 1.3421 0.34088 
0.695907 0.655899 0.341455 0.295645 0.819353 0.423488 0.928443 0.89924 0.403436 
0.941632 0.458941 0.47427 0.964824 0.254114 0.789801 0.533258 0.28204 0.272638 
0.275927 0.521329 0.54388 0.513545 0.289659 1.30986 0.556325 0.316217 0.310844 
0.739526 0.302634 0.561575 0.549389 0.295817 0.32022 0.540178 0.662465 0.338967 
0.659886 1.34455 0.338311 0.340945 0.658684 0.693791 0.343348 0.656545 0.663868 
0.337286 0.664742 0.676712 0.33836 1.33794 0.335413 0.668025 0.335104 0.666474 
0.667632 0.666692 0.333039 0.334407 0.334347 0.666632 1.33415 0.333185 0.667034 
0.333039 0.666764 0.667004 0.333536 0.667004 1.33371 0.666827 0.333713 0.66713 
0.333417 0.666709 0.333713 0.670319 0.665701 0.335495 0.33494 0.66621 0.665659 
0.666362 1.33443 0.334919 0.334919 0.666695 0.667635 0.666692 0.666632 0.334407 
0.334347 0.334407 0.333185 0.666834 0.666695 1.33415 0.333601 0.666557 0.334081 
0.668022 0.334421 1.33393 0.667377 0.333595 0.66636 0.666921 0.655256 0.341267 
0.697649 0.655366 1.34264 0.341074 0.340664 0.656199 1.34278 0.655624 0.696901 
0.341235 0.662699 0.33725 1.34042 0.337443 0.663514 0.685071 0.66163 0.339122 
0.660992 0.33973 0.339714 0.660676 1.34058 0.659573 0.339438 0.660031 0.688483 
0.340716 0.339714 1.33846 0.337835 0.662289 0.339092 0.662508 0.682438 0.661689 
0.340233 0.664191 1.33858 0.336249 0.336075 0.665172 0.66332 0.679485 0.338271 
0.339408 0.659554 1.34243 0.658761 0.339275 0.69231 0.339275 0.657586 0.34084 
0.340515 0.656328 1.34178 0.340685 0.656986 0.694329 0.656485 0.341406 0.883204 
0.358854 0.848033 0.3345 0.531199 1.00443 0.525978 0.996448 0.974656 0.500008 
0.990485 0.510367 0.653443 0.341473 0.70042 0.655991 0.34642 0.343016 0.345021 
0.658793 0.339545 1.34695 0.661466 1.00643 0.53643 0.343785 0.650985 0.701619 
0.653174 0.348191 0.346092 0.65665 0.653895 0.657851 1.34376 0.342242 0.651848 
0.146871 0.737502 0.209848 0.758992 0.113824 0.694282 0.460635 0.250054 0.0540451 
0.469757 0.723785 0.213433 0.257098 0.422785 0.286749 0.280466 0.509667 0.239495 
0.224868 0.446573 0.483353 0.501004 0.267382 0.672523 0.327933 0.312283 0.317636 
0.577359 0.583423 0.320688 0.568809 0.736277 0.317636 1.342 0.319916 0.323351 
0.599384 0.590454 0.32788 0.605857 0.599287 1.33852 0.594827 0.331324 0.607266 
0.341604 0.738415 0.611761 0.335378 0.344784 0.60199 0.342058 1.34525 0.340177 
0.635028 0.629633 0.634103 0.343278 0.636919 0.725715 0.351172 0.347175 0.630465 
0.622995 0.3385 0.334433 0.343988 0.334319 0.617202 0.729812 0.633306 0.334433 
0.628048 1.35096 0.336607 0.625476 0.682007 0.663292 0.339697 0.662331 0.340777 
0.341327 0.661225 0.663626 0.338448 0.661963 1.33867 0.338763 0.339772 0.686918 
0.659636 0.340427 0.341677 0.660971 0.666298 0.337793 0.66518 1.34229 0.663041 
0.338448 0.666062 0.334919 0.670319 0.335125 0.666766 0.334919 1.33443 0.334919 
0.666016 0.665659 0.665513 0.336085 0.672527 0.666042 0.337127 1.33679 0.667853 
0.334668 0.334919 0.66697 0.335515 0.66598 0.335078 0.67148 0.667377 0.334373 
1.33546 0.66678 0.665544 0.669152 0.335059 0.335115 0.665935 0.666129 0.33479 
1.33455 0.666509 0.659383 0.340945 1.34203 0.656545 0.341763 0.694773 0.656553 
0.344809 0.342492 0.658433 0.664168 0.334919 0.672845 0.665659 0.664946 0.336866 
0.335849 0.665927 0.335572 1.33575 0.676712 0.664141 0.337808 0.338881 0.668025 
0.667156 1.33794 0.335413 0.665673 0.335104 0.667004 1.33371 0.333536 0.666827 
0.333713 0.333417 0.666709 0.66713 0.333713 0.666709 0.666634 0.666557 0.333601 
1.33336 0.333601 0.666792 0.666709 0.333417 0.666627 1.33497 0.333376 0.666738 
0.334846 0.666129 0.669004 0.666456 0.335115 0.335115 0.665452 0.335363 0.671683 
0.336098 0.335042 1.3348 0.666577 0.66598 0.336511 0.665617 0.664652 1.33716 
0.337032 0.676621 0.663753 0.337718 0.667124 0.666137 0.334913 1.33663 0.335035 
0.335839 0.664769 0.67371 0.336597 0.664236 1.34058 0.339451 0.660283 0.688483 
0.660031 0.340716 0.33973 0.66163 0.339122 0.660992 0.685071 1.34042 0.662911 
0.337386 0.336148 0.665819 0.664838 1.33858 0.679485 0.66332 0.338049 0.338708 
1.33846 0.662673 0.661664 0.337835 0.338108 0.682438 0.662508 0.338108 0.339101 
0.340233 0.661689 0.23965 0.799719 0.285269 0.305602 0.525499 0.275927 0.730379 
0.513727 0.549598 0.545324 0.29436 0.29981 0.537632 1.32958 0.304421 0.557365 
0.569762 0.298013 0.345303 0.649727 0.646951 0.709895 0.348189 0.646973 0.342863 
1.34503 0.650356 0.652544 0.651347 0.64721 1.35072 0.341306 0.340091 0.642608 
0.348672 0.638803 0.343614 0.347211 0.71602 0.53643 1.00643 1.00443 0.531199 
0.500008 0.974656 0.510367 0.990485 0.525978 0.996448 0.906872 0.392837 0.921478 
0.432942 0.64128 0.342033 0.71602 0.348672 0.645215 0.34563 0.652948 0.650874 
1.35072 0.647279 0.340447 0.645215 0.345338 0.344099 0.64862 0.709895 0.347347 
0.348993 0.652544 0.648614 0.342863 1.34503 0.344099 0.667377 0.333669 1.33393 
0.666816 0.333522 0.668022 0.666557 0.334421 0.334081 0.666557 0.333417 1.33344 
0.666709 0.666695 0.666792 0.333601 0.333417 0.666558 0.333601 1.3427 0.341031 
0.655201 0.69776 0.655201 0.341031 0.665807 0.667411 1.34034 0.336331 0.336877 
0.661963 0.68146 0.66394 0.662828 0.339977 0.338448 0.33889 0.339772 0.662366 
0.660818 1.33997 0.340215 0.659636 0.660116 0.338448 0.343241 0.34125 0.687811 
0.661963 0.163022 0.726586 0.769461 0.19451 0.704975 0.0969271 0.46999 0.460809 
0.24629 1.30168 0.486535 0.237408 0.269211 0.517249 0.508585 0.500097 0.256574 
0.262867 0.460809 0.696364 0.24447 0.445462 0.217394 0.22883 0.0713335 0.235923 
0.45467 0.430866 0.640871 0.340821 1.35114 0.645643 0.339124 0.344475 0.636281 
0.633878 0.347904 0.723154 0.62723 0.629633 0.340177 0.338553 0.883204 0.358854 
0.964824 0.47427 0.941632 0.458941 1.34278 0.656199 0.340664 0.655624 0.696901 
0.341235 0.341074 1.34264 0.655366 0.697649 0.655256 0.341267 0.34088 1.3421 
0.656228 0.341455 0.655899 0.695907 0.656702 0.340765 0.657185 0.694061 0.341358 
0.339932 1.34252 0.657888 1.34206 0.339007 0.660789 0.338768 0.65988 0.340224 
0.658621 0.690231 0.340312 1.34158 0.657819 0.341683 0.692573 0.65777 0.341051 
0.657191 1.32951 0.309785 0.579859 0.313644 0.57069 0.565402 0.317449 0.334056 
0.591429 0.325268 0.741934 0.576092 0.319537 0.586698 0.580603 0.819353 0.295645 
0.857205 0.321841 0.336493 0.630856 0.625476 1.35096 0.338553 0.636286 0.619974 
0.614189 0.72998 0.3441 0.336355 0.340617 0.325816 0.597721 0.328981 1.33852 
0.608587 0.604921 0.331324 0.344784 0.738415 0.604812 0.339108 0.611761 0.333081 
-0.588175 -0.584489 -0.591951 -0.59582 -0.000259733 -0.597702 -1.9941e-05 -0.601687 -0.512864 
-0.507924 -0.514475 -0.500966 -0.496893 -0.495277 -0.534601 -0.529305 -0.000154409 -0.000121637 
-0.521899 -0.516408 -0.48848 -0.492844 -0.000114403 -0.482123 -0.477401 -0.000100991 -0.472564 
-0.469672 -0.474896 -0.465325 -0.461351 -0.612495 -0.607442 -0.605698 -0.623618 -0.619784 
-0.625078 -0.663677 -0.664962 -0.665324 -0.662116 -0.000113483 -0.000113487 -0.660704 -0.657798 
-0.380851 -0.368438 -0.000424219 -0.388181 -0.405944 -0.000107829 -0.396522 -0.237308 -0.249076 
-0.254948 -0.212411 -0.000277186 -0.000553966 -4.23555e-05 -0.225319 -0.000276053 -0.0949596 -0.000108284 
-0.084383 -0.0769509 -0.000108284 -0.000205994 -0.0750696 -0.0491551 -0.000296352 -0.000278831 -0.0512077 
-0.0584594 -0.0694888 -0.0638402 -0.0750696 -0.000295034 -0.0437782 -0.000297786 -0.0491551 -0.000825934 
-0.000297813 -0.0320348 -0.00104134 -0.0250298 -1.37903e-10 -0.000515591 -0.0183995 -0.00103747 -0.00340816 
-0.000302069 -0.00659507 -0.000818312 -0.00103747 -0.00854351 -0.013783 -7.52049e-05 -0.000304043 -0.000304043 
-0.0220593 -0.000302069 -0.106726 -0.102184 -0.114513 -0.000293487 -0.122936 -0.149475 -0.144907 
-0.136814 -0.12888 -0.000204926 -0.097233 -0.000108284 -0.000108284 -0.0909084 -0.0835429 -0.000205997 
-0.0770975 -0.0723174 -0.059447 -0.000296355 -0.000296354 -0.0670154 -0.0522675 -0.000278837 -0.544491 
-0.539184 -0.537263 -0.536665 -0.557499 -0.551906 -0.580773 -0.57506 -0.563619 -0.000186802 
-0.569359 -8.25482e-05 -0.427663 -0.426717 -0.428234 -0.425365 -0.424215 -0.429037 -0.430948 
-0.433517 -0.435427 -0.459568 -0.457984 -0.455258 -0.451287 -0.44787 -0.436885 -0.439551 
-0.441358 -0.444159 -0.445803 -0.442331 -4.9614e-06 -0.454456 -0.445854 -0.437994 -0.000394749 
-0.000115986 -0.430402 -0.418503 -0.000394753 -0.423724 -0.42334 -0.422825 -0.422442 -0.000394751 
-0.418503 -0.430402 -0.000115983 -0.000115993 -0.457711 -0.442104 -0.452859 -0.456637 -0.657114 
-0.655349 -0.654337 -9.60557e-05 -0.653159 -0.651011 -0.650041 -0.000327475 -0.647196 -0.000330482 
-0.000321242 -0.627834 -0.632692 -0.000104989 -0.000104986 -0.643147 -0.639037 -0.658717 -9.50571e-05 
-0.661199 -0.662984 -0.000309634 -0.664737 -0.000352044 -0.00025108 -0.666207 -9.77954e-05 -0.666014 
-0.000251088 -0.666217 -0.665672 -0.651775 -0.655027 -0.656474 -0.647601 -0.64394 -1.71411e-05 
-1.71412e-05 -0.641442 -0.638903 -0.631597 -0.636027 -0.640184 -0.640031 -0.619963 -0.625336 
-0.616536 -0.581437 -4.85805e-05 -0.571843 -0.578913 -4.85797e-05 -0.551115 -0.558875 -0.545533 
-0.54785 -0.545757 -0.6056 -3.70773e-05 -0.613074 -3.70764e-05 -0.590546 -0.595977 -0.584923 
-0.587785 -0.268077 -0.000102071 -0.276987 -0.260952 -0.000102069 -0.286916 -0.000272082 -0.000269449 
-0.000341736 -0.300255 -0.000271163 -0.000269618 -0.351759 -0.000410088 -0.339698 -0.000269624 -0.335431 
-0.32593 -0.312822 -0.000127386 -0.125929 -0.1253 -0.121967 -0.104636 -0.000285474 -0.114227 
-0.146571 -0.136564 -0.000204926 -0.128471 -0.125929 -0.000278922 -0.195779 -0.000638775 -0.182749 
-0.000278939 -0.000116979 -0.156678 -0.000132617 -0.000132616 -0.168914 -0.176743 -0.408862 -0.390466 
-0.3984 -0.000107828 -0.404571 -0.000424221 -0.377558 -0.381771 -0.000424218 -0.368438 -0.155781 
-0.000132617 -0.173746 -0.164045 -0.000132617 -0.168816 -0.000546571 -0.195779 -0.000116979 -0.000638775 
-0.182749 -0.24527 -0.238812 -0.253126 -0.233762 -4.23551e-05 -0.226346 -0.000553967 -0.221294 
-0.212411 -0.0400598 -0.0483528 -0.000565542 -0.0284136 -0.0318563 -0.0264431 -0.000773489 -0.0459023 
-0.0249765 -0.00917769 -0.000515596 -0.00573353 -0.000571409 -0.00344862 -0.00153875 -0.0145318 -0.000571409 
-0.000572486 -0.018204 -0.0221442 -0.000770148 -0.000769045 -0.000770148 -7.52057e-05 -0.616636 -0.624786 
-0.62007 -0.60691 -0.61514 -0.611251 -0.664062 -0.663387 -0.665057 -0.662655 -0.657798 
-0.660704 -0.000113487 -0.000113483 -0.481444 -0.477813 -0.000200313 -0.000200314 -0.4665 -0.5005 
-0.493252 -0.485502 -0.489589 -0.50741 -6.54607e-05 -0.515309 -6.54612e-05 -0.522756 -0.533873 
-0.526595 -1.5855e-05 -0.542857 -1.58552e-05 -0.422442 -0.422825 -0.423724 -0.42334 -0.424215 
-0.425365 -0.426289 -0.428058 -0.427049 -0.44787 -0.451287 -0.45905 -0.455781 -0.444159 
5.55112e-17 -0.445803 -0.442331 -0.439551 -0.436885 -0.441358 -0.430948 -0.429037 -0.435427 
-0.433517 -0.521899 -0.516408 -0.000121637 -0.534601 -0.000154409 -0.529305 -0.513 -0.509331 
-0.505838 -0.500336 -0.503834 -0.49588 -0.530661 -0.539736 -1.58556e-05 -1.58556e-05 -0.536715 
-0.543914 -0.50741 -6.54607e-05 -6.5462e-05 -0.518179 -0.466541 -0.000200323 -0.477898 -0.00020031 
-0.000200314 -0.00020031 -0.489207 -0.5005 -0.481487 -0.27013 -0.000102071 -0.260952 -0.000102071 
-0.278873 -0.000341735 -0.293475 -0.286916 -0.302017 -0.000269449 -0.338608 -0.351759 -0.000410083 
-0.325505 -0.314807 -0.333361 -0.000127385 -0.309815 -0.000330482 -0.650732 -0.647196 -0.657114 
-9.60594e-05 -0.654198 -0.632639 -0.000104992 -0.000104986 -0.636061 -0.627834 -0.637591 -0.643147 
-0.640597 -0.639284 -0.661405 -0.659381 -9.50551e-05 -0.658709 -0.658251 -0.000352042 -0.662984 
-0.664737 -0.666014 -0.000251084 -0.666213 -9.77954e-05 -0.666373 -0.666116 -0.665468 -0.666218 
-0.665878 -0.564181 -0.557735 -0.549144 -0.545757 -0.545533 -4.85802e-05 -0.566053 -0.580854 
-0.572522 -4.85794e-05 -0.546502 -0.538271 -0.542584 -0.552497 -0.557499 -0.54874 -0.462906 
-0.466089 -0.460855 -0.468252 -0.474678 -0.470919 -0.000114403 -0.48848 -0.492844 -0.477401 
-0.482123 -0.000100991 -0.653573 -0.656081 -0.650979 -1.71415e-05 -0.648655 -0.64524 -0.641723 
-1.71412e-05 -0.601571 -0.59582 -1.9941e-05 -0.00025973 -0.584489 -0.590168 -0.563619 -8.25482e-05 
-0.000186802 -0.569359 -0.574761 -0.579895 -0.58227 -0.581691 -0.593547 -0.599013 -0.586139 
-0.607586 -3.70769e-05 -0.613074 -0.602145 -3.70773e-05 -0.640184 -0.629108 -0.63842 -0.633416 
-0.640031 -0.627836 -0.617394 -0.623419 
FIELD FieldData 3
Normals 3 1489 double
-1.0005e-06 0 -1 -9.82423e-07 -1.89347e-07 -1 -8.05676e-07 -5.93206e-07 -1 
9.87936e-07 -1.58081e-07 -1 9.40166e-07 -3.42192e-07 -1 7.4564e-07 -6.67105e-07 -1 
9.1657e-07 -4.01132e-07 -1 5.77846e-07 -7.5928e-07 1 4.23708e-07 -8.54917e-07 1 
1.51385e-08 -9.54035e-07 1 -6.90554e-07 -6.58442e-07 1 -2.83308e-07 -9.11125e-07 1 
-9.03381e-07 4.30011e-07 -1 -7.6643e-07 6.43111e-07 -1 -8.05676e-07 5.93206e-07 -1 
1.58739e-08 1.00038e-06 -1 -1.73736e-07 9.85304e-07 -1 -5.27491e-07 8.50154e-07 -1 
-3.57066e-07 9.34618e-07 -1 -9.92455e-07 -1.26655e-07 -1 -9.98489e-07 -6.34559e-08 -1 
-9.5055e-07 -3.12191e-07 -1 -9.68436e-07 -2.51274e-07 -1 -7.24098e-07 -6.90427e-07 -1 
-7.6643e-07 -6.43111e-07 -1 -8.41677e-07 -5.40913e-07 -1 -8.7429e-07 -4.86441e-07 -1 
-9.28835e-07 -3.7185e-07 -1 -9.03381e-07 -4.30011e-07 -1 -8.85806e-07 -3.54624e-07 1 
-7.30925e-07 -6.13319e-07 1 -9.36912e-07 -1.80576e-07 1 1e-06 -3.1744e-08 -1 
9.95973e-07 -9.5104e-08 -1 9.75921e-07 -2.20422e-07 -1 9.59976e-07 -2.81874e-07 -1 
8.24091e-07 -5.67346e-07 -1 7.86449e-07 -6.1847e-07 -1 8.58415e-07 -5.13936e-07 -1 
8.89283e-07 -4.58457e-07 -1 7.11097e-07 -6.36201e-07 1 8.48086e-07 -4.37219e-07 1 
8.18649e-07 -4.90128e-07 1 8.74109e-07 -3.82549e-07 1 8.96612e-07 -3.2634e-07 1 
1.35791e-07 9.44443e-07 1 9.49834e-07 9.06983e-08 1 6.69316e-07 -6.8002e-07 1 
6.24838e-07 -7.21102e-07 1 5.28525e-07 -7.944e-07 1 4.77077e-07 -8.26322e-07 1 
1.35791e-07 -9.44443e-07 1 7.56163e-08 -9.51154e-07 1 3.68633e-07 -8.80069e-07 1 
3.12074e-07 -9.01677e-07 1 1.95417e-07 -9.33929e-07 1 2.54258e-07 -9.19654e-07 1 
7.01828e-07 -7.13053e-07 -1 4.4429e-07 -8.96445e-07 -1 -6.01645e-07 -7.40564e-07 1 
-6.47403e-07 -7.00914e-07 1 -2.24951e-07 -9.27259e-07 1 -1.65687e-07 -9.39659e-07 1 
-4.54002e-08 -9.53074e-07 1 -1.05757e-07 -9.48276e-07 1 -3.9637e-07 -8.6793e-07 1 
-3.40525e-07 -8.91321e-07 1 -4.76056e-08 -9.99371e-07 -1 -2.35878e-07 -9.72301e-07 -1 
-4.15624e-07 -9.1009e-07 -1 -4.72509e-07 -8.81897e-07 -1 -4.5062e-07 -8.41043e-07 1 
-9.98489e-07 6.34559e-08 -1 -9.92455e-07 1.26655e-07 -1 -9.68436e-07 2.51274e-07 -1 
-9.82423e-07 1.89347e-07 -1 -9.5055e-07 3.12191e-07 -1 -9.28835e-07 3.7185e-07 -1 
-6.78851e-07 7.34962e-07 -1 -7.24098e-07 6.90427e-07 -1 -8.7429e-07 4.86441e-07 -1 
-8.41677e-07 5.40913e-07 -1 -1.10894e-07 9.94339e-07 -1 -4.76056e-08 9.99371e-07 -1 
-6.3087e-07 7.76537e-07 -1 -5.80349e-07 8.14986e-07 -1 -4.72509e-07 8.81897e-07 -1 
-4.15624e-07 9.1009e-07 -1 -2.83308e-07 9.11125e-07 1 -2.24951e-07 9.27259e-07 1 
-3.40525e-07 8.91321e-07 1 -3.9637e-07 8.6793e-07 1 -5.53464e-07 7.77231e-07 1 
-9.52234e-07 -6.05163e-08 1 -9.46478e-07 -1.20788e-07 1 -8.33788e-07 -4.63907e-07 1 
-8.61532e-07 -4.10091e-07 1 -8.02686e-07 -5.15855e-07 1 -7.68353e-07 -5.65726e-07 1 
-9.06515e-07 -2.97728e-07 1 -9.23573e-07 -2.39634e-07 1 7.85915e-07 -5.41063e-07 1 
7.50017e-07 -5.89819e-07 1 9.49834e-07 -9.06983e-08 1 9.42169e-07 -1.50758e-07 1 
9.15505e-07 -2.68816e-07 1 9.30711e-07 -2.10211e-07 1 1.51385e-08 9.54035e-07 1 
7.56163e-08 9.51154e-07 1 7.01828e-07 7.13053e-07 -1 4.4429e-07 8.96445e-07 -1 
3.8654e-07 9.22819e-07 -1 2.04909e-07 9.79296e-07 -1 9.53674e-07 -3.02734e-08 1 
9.53674e-07 3.02734e-08 1 9.40166e-07 3.42192e-07 -1 9.59976e-07 2.81874e-07 -1 
9.42169e-07 1.50758e-07 1 8.24091e-07 5.67346e-07 -1 9.1657e-07 4.01132e-07 -1 
1.58739e-08 -1.00038e-06 -1 6.05915e-07 -7.96163e-07 -1 6.5519e-07 -7.5613e-07 -1 
5.54199e-07 -8.32989e-07 -1 5.00251e-07 -8.66462e-07 -1 3.8654e-07 -9.22819e-07 -1 
3.27233e-07 -9.45477e-07 -1 2.04909e-07 -9.79296e-07 -1 2.66608e-07 -9.64328e-07 -1 
-1.73736e-07 -9.85304e-07 -1 -1.10894e-07 -9.94339e-07 -1 -3.57066e-07 -9.34618e-07 -1 
-2.9707e-07 -9.55383e-07 -1 -6.78851e-07 -7.34962e-07 -1 -6.3087e-07 -7.76537e-07 -1 
-5.27491e-07 -8.50154e-07 -1 -5.80349e-07 -8.14986e-07 -1 -4.54002e-08 9.53074e-07 1 
-2.9707e-07 9.55383e-07 -1 -2.35878e-07 9.72301e-07 -1 -4.5062e-07 8.41043e-07 1 
-5.03054e-07 8.1077e-07 1 -6.01645e-07 7.40564e-07 1 -6.47403e-07 7.00914e-07 1 
-7.30925e-07 6.13319e-07 1 -6.90554e-07 6.58442e-07 1 -8.61532e-07 4.10091e-07 1 
-8.33788e-07 4.63907e-07 1 -7.68353e-07 5.65726e-07 1 -8.02686e-07 5.15855e-07 1 
6.05915e-07 7.96163e-07 -1 6.5519e-07 7.5613e-07 -1 5.54199e-07 8.32989e-07 -1 
5.00251e-07 8.66462e-07 -1 6.69316e-07 6.8002e-07 1 4.23708e-07 8.54917e-07 1 
2.66608e-07 9.64328e-07 -1 3.27233e-07 9.45477e-07 -1 7.92894e-08 9.97357e-07 -1 
1.42387e-07 9.9032e-07 -1 1e-06 3.1744e-08 -1 9.95973e-07 9.5104e-08 -1 
9.15505e-07 2.68816e-07 1 9.30711e-07 2.10211e-07 1 9.75921e-07 2.20422e-07 -1 
9.87936e-07 1.58081e-07 -1 7.4564e-07 6.67105e-07 -1 7.86449e-07 6.1847e-07 -1 
8.58415e-07 5.13936e-07 -1 8.89283e-07 4.58457e-07 -1 8.18649e-07 4.90128e-07 1 
8.48086e-07 4.37219e-07 1 1.42387e-07 -9.9032e-07 -1 7.92894e-08 -9.97357e-07 -1 
-5.53464e-07 -7.77231e-07 1 -5.03054e-07 -8.1077e-07 1 -9.54155e-07 0 1 
-1.65687e-07 9.39659e-07 1 -1.05757e-07 9.48276e-07 1 5.77846e-07 7.5928e-07 1 
6.24838e-07 7.21102e-07 1 5.28525e-07 7.944e-07 1 4.77077e-07 8.26322e-07 1 
1.95417e-07 9.33929e-07 1 7.85915e-07 5.41063e-07 1 8.96612e-07 3.2634e-07 1 
8.74109e-07 3.82549e-07 1 -9.46478e-07 1.20788e-07 1 -9.52234e-07 6.05163e-08 1 
-9.36912e-07 1.80576e-07 1 -9.23573e-07 2.39634e-07 1 -8.85806e-07 3.54624e-07 1 
-9.06515e-07 2.97728e-07 1 3.68633e-07 8.80069e-07 1 7.11097e-07 6.36201e-07 1 
7.50017e-07 5.89819e-07 1 2.54258e-07 9.19654e-07 1 3.12074e-07 9.01677e-07 1 
-0.723734 -0.690079 -0 -0.723734 -0.690079 -0 -0.723734 -0.690079 -0 
-0.723734 -0.690079 -0 -0.723734 -0.690079 -0 -0.723734 -0.690079 -0 
-0.723734 -0.690079 0 -0.723734 -0.690079 0 -0.723734 -0.690079 0 
-0.723734 -0.690079 0 -0.928368 -0.371663 0 -0.928368 -0.371663 0 